 Entering Gaussian System, Link 0=g16
 Input=O1G_2m_eth_opt_freq.gjf
 Output=O1G_2m_eth_opt_freq.log
 Initial command:
 /apps/gaussian/g16-a03/l1.exe "/tmp/pbs.947007.pbs/Gau-5930.inp" -scrdir="/tmp/pbs.947007.pbs/"
 Entering Link 1 = /apps/gaussian/g16-a03/l1.exe PID=      5931.
  
 Copyright (c) 1988,1990,1992,1993,1995,1998,2003,2009,2016,
            Gaussian, Inc.  All Rights Reserved.
  
 This is part of the Gaussian(R) 16 program.  It is based on
 the Gaussian(R) 09 system (copyright 2009, Gaussian, Inc.),
 the Gaussian(R) 03 system (copyright 2003, Gaussian, Inc.),
 the Gaussian(R) 98 system (copyright 1998, Gaussian, Inc.),
 the Gaussian(R) 94 system (copyright 1995, Gaussian, Inc.),
 the Gaussian 92(TM) system (copyright 1992, Gaussian, Inc.),
 the Gaussian 90(TM) system (copyright 1990, Gaussian, Inc.),
 the Gaussian 88(TM) system (copyright 1988, Gaussian, Inc.),
 the Gaussian 86(TM) system (copyright 1986, Carnegie Mellon
 University), and the Gaussian 82(TM) system (copyright 1983,
 Carnegie Mellon University). Gaussian is a federally registered
 trademark of Gaussian, Inc.
  
 This software contains proprietary and confidential information,
 including trade secrets, belonging to Gaussian, Inc.
  
 This software is provided under written license and may be
 used, copied, transmitted, or stored only in accord with that
 written license.
  
 The following legend is applicable only to US Government
 contracts under FAR:
  
                    RESTRICTED RIGHTS LEGEND
  
 Use, reproduction and disclosure by the US Government is
 subject to restrictions as set forth in subparagraphs (a)
 and (c) of the Commercial Computer Software - Restricted
 Rights clause in FAR 52.227-19.
  
 Gaussian, Inc.
 340 Quinnipiac St., Bldg. 40, Wallingford CT 06492
  
  
 ---------------------------------------------------------------
 Warning -- This program may not be used in any manner that
 competes with the business of Gaussian, Inc. or will provide
 assistance to any competitor of Gaussian, Inc.  The licensee
 of this program is prohibited from giving any competitor of
 Gaussian, Inc. access to this program.  By using this program,
 the user acknowledges that Gaussian, Inc. is engaged in the
 business of creating and licensing software in the field of
 computational chemistry and represents and warrants to the
 licensee that it is not a competitor of Gaussian, Inc. and that
 it will not use this program in any manner prohibited above.
 ---------------------------------------------------------------
  

 Cite this work as:
 Gaussian 16, Revision A.03,
 M. J. Frisch, G. W. Trucks, H. B. Schlegel, G. E. Scuseria, 
 M. A. Robb, J. R. Cheeseman, G. Scalmani, V. Barone, 
 G. A. Petersson, H. Nakatsuji, X. Li, M. Caricato, A. V. Marenich, 
 J. Bloino, B. G. Janesko, R. Gomperts, B. Mennucci, H. P. Hratchian, 
 J. V. Ortiz, A. F. Izmaylov, J. L. Sonnenberg, D. Williams-Young, 
 F. Ding, F. Lipparini, F. Egidi, J. Goings, B. Peng, A. Petrone, 
 T. Henderson, D. Ranasinghe, V. G. Zakrzewski, J. Gao, N. Rega, 
 G. Zheng, W. Liang, M. Hada, M. Ehara, K. Toyota, R. Fukuda, 
 J. Hasegawa, M. Ishida, T. Nakajima, Y. Honda, O. Kitao, H. Nakai, 
 T. Vreven, K. Throssell, J. A. Montgomery, Jr., J. E. Peralta, 
 F. Ogliaro, M. J. Bearpark, J. J. Heyd, E. N. Brothers, K. N. Kudin, 
 V. N. Staroverov, T. A. Keith, R. Kobayashi, J. Normand, 
 K. Raghavachari, A. P. Rendell, J. C. Burant, S. S. Iyengar, 
 J. Tomasi, M. Cossi, J. M. Millam, M. Klene, C. Adamo, R. Cammi, 
 J. W. Ochterski, R. L. Martin, K. Morokuma, O. Farkas, 
 J. B. Foresman, and D. J. Fox, Gaussian, Inc., Wallingford CT, 2016.
 
 ******************************************
 Gaussian 16:  ES64L-G16RevA.03 25-Dec-2016
                10-Jan-2020 
 ******************************************
 %mem=50GB
 %nprocshared=8
 Will use up to    8 processors via shared memory.
 ------------------------------
 #p opt freq=raman b3lyp/6-311g
 ------------------------------
 1/18=20,19=15,26=3,38=1/1,3;
 2/9=110,12=2,17=6,18=5,40=1/2;
 3/5=4,6=6,11=2,25=1,30=1,71=1,74=-5/1,2,3;
 4//1;
 5/5=2,38=5/2;
 6/7=2,8=2,9=2,10=2,28=1/1;
 7//1,2,3,16;
 1/18=20,19=15,26=3/3(2);
 2/9=110/2;
 99//99;
 2/9=110/2;
 3/5=4,6=6,11=2,25=1,30=1,71=1,74=-5/1,2,3;
 4/5=5,16=3,69=1/1;
 5/5=2,38=5/2;
 7//1,2,3,16;
 1/18=20,19=15,26=3/3(-5);
 2/9=110/2;
 6/7=2,8=2,9=2,10=2,19=2,28=1/1;
 99/9=1/99;
 Leave Link    1 at Fri Jan 10 15:41:21 2020, MaxMem=  6710886400 cpu:               0.2 elap:               0.0
 (Enter /apps/gaussian/g16-a03/l101.exe)
 -----------------------
 OBT_2m_eth_opt_freq.gjf
 -----------------------
 Symbolic Z-matrix:
 Charge =  0 Multiplicity = 1
 C                     4.6729    0.13105  -0.00003 
 C                     5.34615  -1.07859  -0.00008 
 C                     6.77425  -0.98941  -0.00003 
 C                     7.23453   0.29133   0.0001 
 S                     5.90124   1.49661  -0.00006 
 O                     4.61169  -2.26042  -0.00015 
 H                     7.42766  -1.84726  -0.00002 
 C                     3.26892   0.37992  -0.00001 
 C                     2.59208   1.58884   0.00002 
 C                     1.17455   1.50684   0.00001 
 C                     0.67833   0.22339  -0.00004 
 S                     2.04578  -0.98712  0. 
 O                     3.32894   2.76801   0.00004 
 H                     0.5301    2.37162   0.00001 
 C                     5.32132  -3.5409   -0.00011 
 H                     5.95468  -3.60094   0.88944 
 H                     5.95476  -3.60095  -0.8896 
 C                     2.62211   4.0511    0.00007 
 H                     1.98883   4.11158  -0.88934 
 H                     1.98883   4.11155   0.8895 
 H                     8.25208   0.63786   0.00019 
 C                    -3.269    -0.37998  -0.00006 
 C                    -2.59217  -1.58891  -0.00011 
 C                    -1.17463  -1.50692  -0.00013 
 C                    -0.67841  -0.22347  -0.00009 
 S                    -2.04586   0.98704  -0.00016 
 O                    -3.32901  -2.7681   -0.00013 
 H                    -0.53019  -2.3717   -0.00013 
 C                    -4.67297  -0.13105   0.00003 
 C                    -5.34611   1.07865   0.0001 
 C                    -6.77421   0.9896    0.00006 
 C                    -7.23461  -0.29109  -0.00009 
 S                    -5.90145  -1.4965    0.00019 
 O                    -4.61151   2.2604    0.00012 
 H                    -7.42754   1.84752   0.00004 
 C                    -2.62216  -4.05117   0.00003 
 H                    -1.98891  -4.11153   0.88948 
 H                    -1.98884  -4.11171  -0.88936 
 C                    -5.321     3.54097   0.00018 
 H                    -5.95441   3.60111  -0.88933 
 H                    -5.95436   3.60106   0.88972 
 H                    -8.2522   -0.63753  -0.00021 
 C                    -3.68048  -5.13699   0.0001 
 H                    -4.31256  -5.05465   0.88352 
 H                    -4.3125   -5.05482  -0.88338 
 C                     4.2658   -4.62963  -0.00015 
 H                     3.63394  -4.5484    0.88358 
 H                     3.63401  -4.54842  -0.88393 
 C                     3.68046   5.1369    0.0001 
 H                     4.3125    5.05462   0.88355 
 H                     4.3125    5.05465  -0.88336 
 C                    -4.26535   4.62957   0.00019 
 H                    -3.63351   4.54824   0.88393 
 H                    -3.63355   4.5483   -0.88359 
 O                     4.886    -5.91814  -0.00011 
 O                    -3.06301  -6.42681   0.00024 
 O                     3.06301   6.42673   0.00012 
 O                    -4.8854    5.91815   0.00024 
 C                     3.87842  -6.93288  -0.00129 
 H                     3.26858  -6.83098   0.87199 
 H                     3.2698   -6.83016  -0.87532 
 H                     4.34297  -7.89678  -0.00141 
 C                    -4.07272  -7.43941   0.00312 
 H                    -3.61021  -8.40429   0.00259 
 H                    -4.67973  -7.33534   0.87811 
 H                    -4.68374  -7.3363   -0.86919 
 C                    -3.88268   6.93038  -0.12168 
 H                    -3.21121   6.86916   0.70914 
 H                    -3.33849   6.78558  -1.03151 
 H                    -4.34807   7.89379  -0.13391 
 C                     4.07274   7.43932   0.00273 
 H                     4.68335   7.33637  -0.86989 
 H                     3.61025   8.4042    0.00262 
 H                     4.68017   7.33505   0.87741 
 
 ITRead=  0  0  0  0  0  0  0  0  0  0  0  0  0  0  0  0  0  0  0  0
 ITRead=  0  0  0  0  0  0  0  0  0  0  0  0  0  0  0  0  0  0  0  0
 ITRead=  0  0  0  0  0  0  0  0  0  0  0  0  0  0  0  0  0  0  0  0
 ITRead=  0  0  0  0  0  0  0  0  0  0  0  0  0  0
 MicOpt= -1 -1 -1 -1 -1 -1 -1 -1 -1 -1 -1 -1 -1 -1 -1 -1 -1 -1 -1 -1
 MicOpt= -1 -1 -1 -1 -1 -1 -1 -1 -1 -1 -1 -1 -1 -1 -1 -1 -1 -1 -1 -1
 MicOpt= -1 -1 -1 -1 -1 -1 -1 -1 -1 -1 -1 -1 -1 -1 -1 -1 -1 -1 -1 -1
 MicOpt= -1 -1 -1 -1 -1 -1 -1 -1 -1 -1 -1 -1 -1 -1
 NAtoms=     74 NQM=       74 NQMF=       0 NMMI=      0 NMMIF=      0
                NMic=       0 NMicF=      0.
                    Isotopes and Nuclear Properties:
 (Nuclear quadrupole moments (NQMom) in fm**2, nuclear magnetic moments (NMagM)
  in nuclear magnetons)

  Atom         1           2           3           4           5           6           7           8           9          10
 IAtWgt=          12          12          12          12          32          16           1          12          12          12
 AtmWgt=  12.0000000  12.0000000  12.0000000  12.0000000  31.9720718  15.9949146   1.0078250  12.0000000  12.0000000  12.0000000
 NucSpn=           0           0           0           0           0           0           1           0           0           0
 AtZEff=  -0.0000000  -0.0000000  -0.0000000  -0.0000000  -0.0000000  -0.0000000  -0.0000000  -0.0000000  -0.0000000  -0.0000000
 NQMom=    0.0000000   0.0000000   0.0000000   0.0000000   0.0000000   0.0000000   0.0000000   0.0000000   0.0000000   0.0000000
 NMagM=    0.0000000   0.0000000   0.0000000   0.0000000   0.0000000   0.0000000   2.7928460   0.0000000   0.0000000   0.0000000
 AtZNuc=   6.0000000   6.0000000   6.0000000   6.0000000  16.0000000   8.0000000   1.0000000   6.0000000   6.0000000   6.0000000

  Atom        11          12          13          14          15          16          17          18          19          20
 IAtWgt=          12          32          16           1          12           1           1          12           1           1
 AtmWgt=  12.0000000  31.9720718  15.9949146   1.0078250  12.0000000   1.0078250   1.0078250  12.0000000   1.0078250   1.0078250
 NucSpn=           0           0           0           1           0           1           1           0           1           1
 AtZEff=  -0.0000000  -0.0000000  -0.0000000  -0.0000000  -0.0000000  -0.0000000  -0.0000000  -0.0000000  -0.0000000  -0.0000000
 NQMom=    0.0000000   0.0000000   0.0000000   0.0000000   0.0000000   0.0000000   0.0000000   0.0000000   0.0000000   0.0000000
 NMagM=    0.0000000   0.0000000   0.0000000   2.7928460   0.0000000   2.7928460   2.7928460   0.0000000   2.7928460   2.7928460
 AtZNuc=   6.0000000  16.0000000   8.0000000   1.0000000   6.0000000   1.0000000   1.0000000   6.0000000   1.0000000   1.0000000

  Atom        21          22          23          24          25          26          27          28          29          30
 IAtWgt=           1          12          12          12          12          32          16           1          12          12
 AtmWgt=   1.0078250  12.0000000  12.0000000  12.0000000  12.0000000  31.9720718  15.9949146   1.0078250  12.0000000  12.0000000
 NucSpn=           1           0           0           0           0           0           0           1           0           0
 AtZEff=  -0.0000000  -0.0000000  -0.0000000  -0.0000000  -0.0000000  -0.0000000  -0.0000000  -0.0000000  -0.0000000  -0.0000000
 NQMom=    0.0000000   0.0000000   0.0000000   0.0000000   0.0000000   0.0000000   0.0000000   0.0000000   0.0000000   0.0000000
 NMagM=    2.7928460   0.0000000   0.0000000   0.0000000   0.0000000   0.0000000   0.0000000   2.7928460   0.0000000   0.0000000
 AtZNuc=   1.0000000   6.0000000   6.0000000   6.0000000   6.0000000  16.0000000   8.0000000   1.0000000   6.0000000   6.0000000

  Atom        31          32          33          34          35          36          37          38          39          40
 IAtWgt=          12          12          32          16           1          12           1           1          12           1
 AtmWgt=  12.0000000  12.0000000  31.9720718  15.9949146   1.0078250  12.0000000   1.0078250   1.0078250  12.0000000   1.0078250
 NucSpn=           0           0           0           0           1           0           1           1           0           1
 AtZEff=  -0.0000000  -0.0000000  -0.0000000  -0.0000000  -0.0000000  -0.0000000  -0.0000000  -0.0000000  -0.0000000  -0.0000000
 NQMom=    0.0000000   0.0000000   0.0000000   0.0000000   0.0000000   0.0000000   0.0000000   0.0000000   0.0000000   0.0000000
 NMagM=    0.0000000   0.0000000   0.0000000   0.0000000   2.7928460   0.0000000   2.7928460   2.7928460   0.0000000   2.7928460
 AtZNuc=   6.0000000   6.0000000  16.0000000   8.0000000   1.0000000   6.0000000   1.0000000   1.0000000   6.0000000   1.0000000

  Atom        41          42          43          44          45          46          47          48          49          50
 IAtWgt=           1           1          12           1           1          12           1           1          12           1
 AtmWgt=   1.0078250   1.0078250  12.0000000   1.0078250   1.0078250  12.0000000   1.0078250   1.0078250  12.0000000   1.0078250
 NucSpn=           1           1           0           1           1           0           1           1           0           1
 AtZEff=  -0.0000000  -0.0000000  -0.0000000  -0.0000000  -0.0000000  -0.0000000  -0.0000000  -0.0000000  -0.0000000  -0.0000000
 NQMom=    0.0000000   0.0000000   0.0000000   0.0000000   0.0000000   0.0000000   0.0000000   0.0000000   0.0000000   0.0000000
 NMagM=    2.7928460   2.7928460   0.0000000   2.7928460   2.7928460   0.0000000   2.7928460   2.7928460   0.0000000   2.7928460
 AtZNuc=   1.0000000   1.0000000   6.0000000   1.0000000   1.0000000   6.0000000   1.0000000   1.0000000   6.0000000   1.0000000

  Atom        51          52          53          54          55          56          57          58          59          60
 IAtWgt=           1          12           1           1          16          16          16          16          12           1
 AtmWgt=   1.0078250  12.0000000   1.0078250   1.0078250  15.9949146  15.9949146  15.9949146  15.9949146  12.0000000   1.0078250
 NucSpn=           1           0           1           1           0           0           0           0           0           1
 AtZEff=  -0.0000000  -0.0000000  -0.0000000  -0.0000000  -0.0000000  -0.0000000  -0.0000000  -0.0000000  -0.0000000  -0.0000000
 NQMom=    0.0000000   0.0000000   0.0000000   0.0000000   0.0000000   0.0000000   0.0000000   0.0000000   0.0000000   0.0000000
 NMagM=    2.7928460   0.0000000   2.7928460   2.7928460   0.0000000   0.0000000   0.0000000   0.0000000   0.0000000   2.7928460
 AtZNuc=   1.0000000   6.0000000   1.0000000   1.0000000   8.0000000   8.0000000   8.0000000   8.0000000   6.0000000   1.0000000

  Atom        61          62          63          64          65          66          67          68          69          70
 IAtWgt=           1           1          12           1           1           1          12           1           1           1
 AtmWgt=   1.0078250   1.0078250  12.0000000   1.0078250   1.0078250   1.0078250  12.0000000   1.0078250   1.0078250   1.0078250
 NucSpn=           1           1           0           1           1           1           0           1           1           1
 AtZEff=  -0.0000000  -0.0000000  -0.0000000  -0.0000000  -0.0000000  -0.0000000  -0.0000000  -0.0000000  -0.0000000  -0.0000000
 NQMom=    0.0000000   0.0000000   0.0000000   0.0000000   0.0000000   0.0000000   0.0000000   0.0000000   0.0000000   0.0000000
 NMagM=    2.7928460   2.7928460   0.0000000   2.7928460   2.7928460   2.7928460   0.0000000   2.7928460   2.7928460   2.7928460
 AtZNuc=   1.0000000   1.0000000   6.0000000   1.0000000   1.0000000   1.0000000   6.0000000   1.0000000   1.0000000   1.0000000

  Atom        71          72          73          74
 IAtWgt=          12           1           1           1
 AtmWgt=  12.0000000   1.0078250   1.0078250   1.0078250
 NucSpn=           0           1           1           1
 AtZEff=  -0.0000000  -0.0000000  -0.0000000  -0.0000000
 NQMom=    0.0000000   0.0000000   0.0000000   0.0000000
 NMagM=    0.0000000   2.7928460   2.7928460   2.7928460
 AtZNuc=   6.0000000   1.0000000   1.0000000   1.0000000
 Leave Link  101 at Fri Jan 10 15:41:22 2020, MaxMem=  6710886400 cpu:               3.8 elap:               0.5
 (Enter /apps/gaussian/g16-a03/l103.exe)

 GradGradGradGradGradGradGradGradGradGradGradGradGradGradGradGradGradGrad
 Berny optimization.
 Initialization pass.
                           ----------------------------
                           !    Initial Parameters    !
                           ! (Angstroms and Degrees)  !
 --------------------------                            --------------------------
 ! Name  Definition              Value          Derivative Info.                !
 --------------------------------------------------------------------------------
 ! R1    R(1,2)                  1.3844         estimate D2E/DX2                !
 ! R2    R(1,5)                  1.8367         estimate D2E/DX2                !
 ! R3    R(1,8)                  1.4259         estimate D2E/DX2                !
 ! R4    R(2,3)                  1.4309         estimate D2E/DX2                !
 ! R5    R(2,6)                  1.3915         estimate D2E/DX2                !
 ! R6    R(3,4)                  1.3609         estimate D2E/DX2                !
 ! R7    R(3,7)                  1.0784         estimate D2E/DX2                !
 ! R8    R(4,5)                  1.7973         estimate D2E/DX2                !
 ! R9    R(4,21)                 1.0749         estimate D2E/DX2                !
 ! R10   R(6,15)                 1.464          estimate D2E/DX2                !
 ! R11   R(8,9)                  1.3855         estimate D2E/DX2                !
 ! R12   R(8,12)                 1.8344         estimate D2E/DX2                !
 ! R13   R(9,10)                 1.4199         estimate D2E/DX2                !
 ! R14   R(9,13)                 1.3905         estimate D2E/DX2                !
 ! R15   R(10,11)                1.376          estimate D2E/DX2                !
 ! R16   R(10,14)                1.0785         estimate D2E/DX2                !
 ! R17   R(11,12)                1.8263         estimate D2E/DX2                !
 ! R18   R(11,25)                1.4284         estimate D2E/DX2                !
 ! R19   R(13,18)                1.4649         estimate D2E/DX2                !
 ! R20   R(15,16)                1.0936         estimate D2E/DX2                !
 ! R21   R(15,17)                1.0936         estimate D2E/DX2                !
 ! R22   R(15,46)                1.5164         estimate D2E/DX2                !
 ! R23   R(18,19)                1.0935         estimate D2E/DX2                !
 ! R24   R(18,20)                1.0935         estimate D2E/DX2                !
 ! R25   R(18,49)                1.5163         estimate D2E/DX2                !
 ! R26   R(22,23)                1.3855         estimate D2E/DX2                !
 ! R27   R(22,26)                1.8343         estimate D2E/DX2                !
 ! R28   R(22,29)                1.4259         estimate D2E/DX2                !
 ! R29   R(23,24)                1.4199         estimate D2E/DX2                !
 ! R30   R(23,27)                1.3905         estimate D2E/DX2                !
 ! R31   R(24,25)                1.376          estimate D2E/DX2                !
 ! R32   R(24,28)                1.0785         estimate D2E/DX2                !
 ! R33   R(25,26)                1.8263         estimate D2E/DX2                !
 ! R34   R(27,36)                1.4649         estimate D2E/DX2                !
 ! R35   R(29,30)                1.3844         estimate D2E/DX2                !
 ! R36   R(29,33)                1.8367         estimate D2E/DX2                !
 ! R37   R(30,31)                1.4309         estimate D2E/DX2                !
 ! R38   R(30,34)                1.3915         estimate D2E/DX2                !
 ! R39   R(31,32)                1.3609         estimate D2E/DX2                !
 ! R40   R(31,35)                1.0784         estimate D2E/DX2                !
 ! R41   R(32,33)                1.7973         estimate D2E/DX2                !
 ! R42   R(32,42)                1.0749         estimate D2E/DX2                !
 ! R43   R(34,39)                1.464          estimate D2E/DX2                !
 ! R44   R(36,37)                1.0935         estimate D2E/DX2                !
 ! R45   R(36,38)                1.0935         estimate D2E/DX2                !
 ! R46   R(36,43)                1.5163         estimate D2E/DX2                !
 ! R47   R(39,40)                1.0936         estimate D2E/DX2                !
 ! R48   R(39,41)                1.0936         estimate D2E/DX2                !
 ! R49   R(39,52)                1.5164         estimate D2E/DX2                !
 ! R50   R(43,44)                1.0894         estimate D2E/DX2                !
 ! R51   R(43,45)                1.0894         estimate D2E/DX2                !
 ! R52   R(43,56)                1.43           estimate D2E/DX2                !
 ! R53   R(46,47)                1.0894         estimate D2E/DX2                !
 ! R54   R(46,48)                1.0894         estimate D2E/DX2                !
 ! R55   R(46,55)                1.43           estimate D2E/DX2                !
 ! R56   R(49,50)                1.0894         estimate D2E/DX2                !
 ! R57   R(49,51)                1.0894         estimate D2E/DX2                !
 ! R58   R(49,57)                1.43           estimate D2E/DX2                !
 ! R59   R(52,53)                1.0894         estimate D2E/DX2                !
 ! R60   R(52,54)                1.0894         estimate D2E/DX2                !
 ! R61   R(52,58)                1.43           estimate D2E/DX2                !
 ! R62   R(55,59)                1.43           estimate D2E/DX2                !
 ! R63   R(56,63)                1.43           estimate D2E/DX2                !
 ! R64   R(57,71)                1.43           estimate D2E/DX2                !
 ! R65   R(58,67)                1.43           estimate D2E/DX2                !
 ! R66   R(59,60)                1.07           estimate D2E/DX2                !
 ! R67   R(59,61)                1.07           estimate D2E/DX2                !
 ! R68   R(59,62)                1.07           estimate D2E/DX2                !
 ! R69   R(63,64)                1.07           estimate D2E/DX2                !
 ! R70   R(63,65)                1.07           estimate D2E/DX2                !
 ! R71   R(63,66)                1.07           estimate D2E/DX2                !
 ! R72   R(67,68)                1.07           estimate D2E/DX2                !
 ! R73   R(67,69)                1.07           estimate D2E/DX2                !
 ! R74   R(67,70)                1.07           estimate D2E/DX2                !
 ! R75   R(71,72)                1.07           estimate D2E/DX2                !
 ! R76   R(71,73)                1.07           estimate D2E/DX2                !
 ! R77   R(71,74)                1.07           estimate D2E/DX2                !
 ! A1    A(2,1,5)              108.929          estimate D2E/DX2                !
 ! A2    A(2,1,8)              129.1509         estimate D2E/DX2                !
 ! A3    A(5,1,8)              121.9202         estimate D2E/DX2                !
 ! A4    A(1,2,3)              115.5259         estimate D2E/DX2                !
 ! A5    A(1,2,6)              119.0416         estimate D2E/DX2                !
 ! A6    A(3,2,6)              125.4325         estimate D2E/DX2                !
 ! A7    A(2,3,4)              113.3411         estimate D2E/DX2                !
 ! A8    A(2,3,7)              123.7226         estimate D2E/DX2                !
 ! A9    A(4,3,7)              122.9362         estimate D2E/DX2                !
 ! A10   A(3,4,5)              112.3455         estimate D2E/DX2                !
 ! A11   A(3,4,21)             128.5744         estimate D2E/DX2                !
 ! A12   A(5,4,21)             119.0801         estimate D2E/DX2                !
 ! A13   A(1,5,4)               89.8585         estimate D2E/DX2                !
 ! A14   A(2,6,15)             119.1459         estimate D2E/DX2                !
 ! A15   A(1,8,9)              129.2948         estimate D2E/DX2                !
 ! A16   A(1,8,12)             121.7685         estimate D2E/DX2                !
 ! A17   A(9,8,12)             108.9366         estimate D2E/DX2                !
 ! A18   A(8,9,10)             115.9326         estimate D2E/DX2                !
 ! A19   A(8,9,13)             118.7559         estimate D2E/DX2                !
 ! A20   A(10,9,13)            125.3116         estimate D2E/DX2                !
 ! A21   A(9,10,11)            114.4487         estimate D2E/DX2                !
 ! A22   A(9,10,14)            123.3833         estimate D2E/DX2                !
 ! A23   A(11,10,14)           122.168          estimate D2E/DX2                !
 ! A24   A(10,11,12)           110.3781         estimate D2E/DX2                !
 ! A25   A(10,11,25)           129.3683         estimate D2E/DX2                !
 ! A26   A(12,11,25)           120.2536         estimate D2E/DX2                !
 ! A27   A(8,12,11)             90.304          estimate D2E/DX2                !
 ! A28   A(9,13,18)            119.1496         estimate D2E/DX2                !
 ! A29   A(6,15,16)            109.1935         estimate D2E/DX2                !
 ! A30   A(6,15,17)            109.1935         estimate D2E/DX2                !
 ! A31   A(6,15,46)            106.8926         estimate D2E/DX2                !
 ! A32   A(16,15,17)           108.8511         estimate D2E/DX2                !
 ! A33   A(16,15,46)           111.3288         estimate D2E/DX2                !
 ! A34   A(17,15,46)           111.3289         estimate D2E/DX2                !
 ! A35   A(13,18,19)           109.1391         estimate D2E/DX2                !
 ! A36   A(13,18,20)           109.1392         estimate D2E/DX2                !
 ! A37   A(13,18,49)           106.884          estimate D2E/DX2                !
 ! A38   A(19,18,20)           108.8511         estimate D2E/DX2                !
 ! A39   A(19,18,49)           111.3852         estimate D2E/DX2                !
 ! A40   A(20,18,49)           111.3851         estimate D2E/DX2                !
 ! A41   A(23,22,26)           108.9365         estimate D2E/DX2                !
 ! A42   A(23,22,29)           129.2976         estimate D2E/DX2                !
 ! A43   A(26,22,29)           121.7659         estimate D2E/DX2                !
 ! A44   A(22,23,24)           115.9324         estimate D2E/DX2                !
 ! A45   A(22,23,27)           118.7568         estimate D2E/DX2                !
 ! A46   A(24,23,27)           125.3108         estimate D2E/DX2                !
 ! A47   A(23,24,25)           114.4489         estimate D2E/DX2                !
 ! A48   A(23,24,28)           123.3833         estimate D2E/DX2                !
 ! A49   A(25,24,28)           122.1678         estimate D2E/DX2                !
 ! A50   A(11,25,24)           129.3685         estimate D2E/DX2                !
 ! A51   A(11,25,26)           120.2536         estimate D2E/DX2                !
 ! A52   A(24,25,26)           110.3779         estimate D2E/DX2                !
 ! A53   A(22,26,25)            90.3043         estimate D2E/DX2                !
 ! A54   A(23,27,36)           119.1493         estimate D2E/DX2                !
 ! A55   A(22,29,30)           129.1484         estimate D2E/DX2                !
 ! A56   A(22,29,33)           121.9226         estimate D2E/DX2                !
 ! A57   A(30,29,33)           108.929          estimate D2E/DX2                !
 ! A58   A(29,30,31)           115.526          estimate D2E/DX2                !
 ! A59   A(29,30,34)           119.0406         estimate D2E/DX2                !
 ! A60   A(31,30,34)           125.4333         estimate D2E/DX2                !
 ! A61   A(30,31,32)           113.3412         estimate D2E/DX2                !
 ! A62   A(30,31,35)           123.7226         estimate D2E/DX2                !
 ! A63   A(32,31,35)           122.9362         estimate D2E/DX2                !
 ! A64   A(31,32,33)           112.3455         estimate D2E/DX2                !
 ! A65   A(31,32,42)           128.5744         estimate D2E/DX2                !
 ! A66   A(33,32,42)           119.0802         estimate D2E/DX2                !
 ! A67   A(29,33,32)            89.8583         estimate D2E/DX2                !
 ! A68   A(30,34,39)           119.1463         estimate D2E/DX2                !
 ! A69   A(27,36,37)           109.139          estimate D2E/DX2                !
 ! A70   A(27,36,38)           109.1391         estimate D2E/DX2                !
 ! A71   A(27,36,43)           106.884          estimate D2E/DX2                !
 ! A72   A(37,36,38)           108.8511         estimate D2E/DX2                !
 ! A73   A(37,36,43)           111.3854         estimate D2E/DX2                !
 ! A74   A(38,36,43)           111.3851         estimate D2E/DX2                !
 ! A75   A(34,39,40)           109.1935         estimate D2E/DX2                !
 ! A76   A(34,39,41)           109.1936         estimate D2E/DX2                !
 ! A77   A(34,39,52)           106.8925         estimate D2E/DX2                !
 ! A78   A(40,39,41)           108.8511         estimate D2E/DX2                !
 ! A79   A(40,39,52)           111.329          estimate D2E/DX2                !
 ! A80   A(41,39,52)           111.3287         estimate D2E/DX2                !
 ! A81   A(36,43,44)           110.5417         estimate D2E/DX2                !
 ! A82   A(36,43,45)           110.5419         estimate D2E/DX2                !
 ! A83   A(36,43,56)           110.1526         estimate D2E/DX2                !
 ! A84   A(44,43,45)           108.3824         estimate D2E/DX2                !
 ! A85   A(44,43,56)           108.5803         estimate D2E/DX2                !
 ! A86   A(45,43,56)           108.5802         estimate D2E/DX2                !
 ! A87   A(15,46,47)           110.4975         estimate D2E/DX2                !
 ! A88   A(15,46,48)           110.4977         estimate D2E/DX2                !
 ! A89   A(15,46,55)           110.1846         estimate D2E/DX2                !
 ! A90   A(47,46,48)           108.4304         estimate D2E/DX2                !
 ! A91   A(47,46,55)           108.5853         estimate D2E/DX2                !
 ! A92   A(48,46,55)           108.5854         estimate D2E/DX2                !
 ! A93   A(18,49,50)           110.5418         estimate D2E/DX2                !
 ! A94   A(18,49,51)           110.5417         estimate D2E/DX2                !
 ! A95   A(18,49,57)           110.1526         estimate D2E/DX2                !
 ! A96   A(50,49,51)           108.3824         estimate D2E/DX2                !
 ! A97   A(50,49,57)           108.5803         estimate D2E/DX2                !
 ! A98   A(51,49,57)           108.5803         estimate D2E/DX2                !
 ! A99   A(39,52,53)           110.4976         estimate D2E/DX2                !
 ! A100  A(39,52,54)           110.4978         estimate D2E/DX2                !
 ! A101  A(39,52,58)           110.1846         estimate D2E/DX2                !
 ! A102  A(53,52,54)           108.4303         estimate D2E/DX2                !
 ! A103  A(53,52,58)           108.5853         estimate D2E/DX2                !
 ! A104  A(54,52,58)           108.5854         estimate D2E/DX2                !
 ! A105  A(46,55,59)           109.5            estimate D2E/DX2                !
 ! A106  A(43,56,63)           109.5            estimate D2E/DX2                !
 ! A107  A(49,57,71)           109.5            estimate D2E/DX2                !
 ! A108  A(52,58,67)           109.5            estimate D2E/DX2                !
 ! A109  A(55,59,60)           109.4712         estimate D2E/DX2                !
 ! A110  A(55,59,61)           109.4712         estimate D2E/DX2                !
 ! A111  A(55,59,62)           109.4712         estimate D2E/DX2                !
 ! A112  A(60,59,61)           109.4713         estimate D2E/DX2                !
 ! A113  A(60,59,62)           109.4712         estimate D2E/DX2                !
 ! A114  A(61,59,62)           109.4712         estimate D2E/DX2                !
 ! A115  A(56,63,64)           109.4712         estimate D2E/DX2                !
 ! A116  A(56,63,65)           109.4712         estimate D2E/DX2                !
 ! A117  A(56,63,66)           109.4712         estimate D2E/DX2                !
 ! A118  A(64,63,65)           109.4713         estimate D2E/DX2                !
 ! A119  A(64,63,66)           109.4712         estimate D2E/DX2                !
 ! A120  A(65,63,66)           109.4712         estimate D2E/DX2                !
 ! A121  A(58,67,68)           109.4712         estimate D2E/DX2                !
 ! A122  A(58,67,69)           109.4712         estimate D2E/DX2                !
 ! A123  A(58,67,70)           109.4712         estimate D2E/DX2                !
 ! A124  A(68,67,69)           109.4713         estimate D2E/DX2                !
 ! A125  A(68,67,70)           109.4712         estimate D2E/DX2                !
 ! A126  A(69,67,70)           109.4712         estimate D2E/DX2                !
 ! A127  A(57,71,72)           109.4712         estimate D2E/DX2                !
 ! A128  A(57,71,73)           109.4712         estimate D2E/DX2                !
 ! A129  A(57,71,74)           109.4712         estimate D2E/DX2                !
 ! A130  A(72,71,73)           109.4713         estimate D2E/DX2                !
 ! A131  A(72,71,74)           109.4712         estimate D2E/DX2                !
 ! A132  A(73,71,74)           109.4712         estimate D2E/DX2                !
 ! D1    D(5,1,2,3)              0.005          estimate D2E/DX2                !
 ! D2    D(5,1,2,6)           -179.9965         estimate D2E/DX2                !
 ! D3    D(8,1,2,3)           -179.997          estimate D2E/DX2                !
 ! D4    D(8,1,2,6)              0.0015         estimate D2E/DX2                !
 ! D5    D(2,1,5,4)             -0.0073         estimate D2E/DX2                !
 ! D6    D(8,1,5,4)            179.9945         estimate D2E/DX2                !
 ! D7    D(2,1,8,9)           -179.999          estimate D2E/DX2                !
 ! D8    D(2,1,8,12)             0.0018         estimate D2E/DX2                !
 ! D9    D(5,1,8,9)             -0.0012         estimate D2E/DX2                !
 ! D10   D(5,1,8,12)           179.9995         estimate D2E/DX2                !
 ! D11   D(1,2,3,4)              0.0012         estimate D2E/DX2                !
 ! D12   D(1,2,3,7)            179.9978         estimate D2E/DX2                !
 ! D13   D(6,2,3,4)           -179.9971         estimate D2E/DX2                !
 ! D14   D(6,2,3,7)             -0.0005         estimate D2E/DX2                !
 ! D15   D(1,2,6,15)          -179.9959         estimate D2E/DX2                !
 ! D16   D(3,2,6,15)             0.0024         estimate D2E/DX2                !
 ! D17   D(2,3,4,5)             -0.0071         estimate D2E/DX2                !
 ! D18   D(2,3,4,21)           179.9978         estimate D2E/DX2                !
 ! D19   D(7,3,4,5)            179.9963         estimate D2E/DX2                !
 ! D20   D(7,3,4,21)             0.0011         estimate D2E/DX2                !
 ! D21   D(3,4,5,1)              0.0083         estimate D2E/DX2                !
 ! D22   D(21,4,5,1)          -179.9961         estimate D2E/DX2                !
 ! D23   D(2,6,15,16)           59.4534         estimate D2E/DX2                !
 ! D24   D(2,6,15,17)          -59.4572         estimate D2E/DX2                !
 ! D25   D(2,6,15,46)          179.998          estimate D2E/DX2                !
 ! D26   D(1,8,9,10)           179.9987         estimate D2E/DX2                !
 ! D27   D(1,8,9,13)            -0.0007         estimate D2E/DX2                !
 ! D28   D(12,8,9,10)           -0.002          estimate D2E/DX2                !
 ! D29   D(12,8,9,13)          179.9987         estimate D2E/DX2                !
 ! D30   D(1,8,12,11)         -179.998          estimate D2E/DX2                !
 ! D31   D(9,8,12,11)            0.0026         estimate D2E/DX2                !
 ! D32   D(8,9,10,11)            0.0            estimate D2E/DX2                !
 ! D33   D(8,9,10,14)         -179.9989         estimate D2E/DX2                !
 ! D34   D(13,9,10,11)         179.9993         estimate D2E/DX2                !
 ! D35   D(13,9,10,14)           0.0004         estimate D2E/DX2                !
 ! D36   D(8,9,13,18)          179.9999         estimate D2E/DX2                !
 ! D37   D(10,9,13,18)           0.0006         estimate D2E/DX2                !
 ! D38   D(9,10,11,12)           0.0021         estimate D2E/DX2                !
 ! D39   D(9,10,11,25)        -179.9986         estimate D2E/DX2                !
 ! D40   D(14,10,11,12)       -179.9991         estimate D2E/DX2                !
 ! D41   D(14,10,11,25)          0.0002         estimate D2E/DX2                !
 ! D42   D(10,11,12,8)          -0.0026         estimate D2E/DX2                !
 ! D43   D(25,11,12,8)         179.998          estimate D2E/DX2                !
 ! D44   D(10,11,25,24)       -179.9999         estimate D2E/DX2                !
 ! D45   D(10,11,25,26)          0.0022         estimate D2E/DX2                !
 ! D46   D(12,11,25,24)         -0.0006         estimate D2E/DX2                !
 ! D47   D(12,11,25,26)       -179.9985         estimate D2E/DX2                !
 ! D48   D(9,13,18,19)         -59.4233         estimate D2E/DX2                !
 ! D49   D(9,13,18,20)          59.4233         estimate D2E/DX2                !
 ! D50   D(9,13,18,49)         180.0            estimate D2E/DX2                !
 ! D51   D(6,15,46,47)         -60.003          estimate D2E/DX2                !
 ! D52   D(6,15,46,48)          60.0029         estimate D2E/DX2                !
 ! D53   D(6,15,46,55)        -180.0            estimate D2E/DX2                !
 ! D54   D(16,15,46,47)         59.1684         estimate D2E/DX2                !
 ! D55   D(16,15,46,48)        179.1743         estimate D2E/DX2                !
 ! D56   D(16,15,46,55)        -60.8286         estimate D2E/DX2                !
 ! D57   D(17,15,46,47)       -179.1745         estimate D2E/DX2                !
 ! D58   D(17,15,46,48)        -59.1686         estimate D2E/DX2                !
 ! D59   D(17,15,46,55)         60.8285         estimate D2E/DX2                !
 ! D60   D(13,18,49,50)        -60.0018         estimate D2E/DX2                !
 ! D61   D(13,18,49,51)         60.0015         estimate D2E/DX2                !
 ! D62   D(13,18,49,57)        179.9998         estimate D2E/DX2                !
 ! D63   D(19,18,49,50)       -179.1338         estimate D2E/DX2                !
 ! D64   D(19,18,49,51)        -59.1305         estimate D2E/DX2                !
 ! D65   D(19,18,49,57)         60.8679         estimate D2E/DX2                !
 ! D66   D(20,18,49,50)         59.1302         estimate D2E/DX2                !
 ! D67   D(20,18,49,51)        179.1335         estimate D2E/DX2                !
 ! D68   D(20,18,49,57)        -60.8681         estimate D2E/DX2                !
 ! D69   D(26,22,23,24)          0.0044         estimate D2E/DX2                !
 ! D70   D(26,22,23,27)       -179.9964         estimate D2E/DX2                !
 ! D71   D(29,22,23,24)       -179.9968         estimate D2E/DX2                !
 ! D72   D(29,22,23,27)          0.0025         estimate D2E/DX2                !
 ! D73   D(23,22,26,25)         -0.0057         estimate D2E/DX2                !
 ! D74   D(29,22,26,25)        179.9954         estimate D2E/DX2                !
 ! D75   D(23,22,29,30)        179.9991         estimate D2E/DX2                !
 ! D76   D(23,22,29,33)          0.0035         estimate D2E/DX2                !
 ! D77   D(26,22,29,30)         -0.0022         estimate D2E/DX2                !
 ! D78   D(26,22,29,33)       -179.9978         estimate D2E/DX2                !
 ! D79   D(22,23,24,25)          0.0001         estimate D2E/DX2                !
 ! D80   D(22,23,24,28)        179.998          estimate D2E/DX2                !
 ! D81   D(27,23,24,25)       -179.999          estimate D2E/DX2                !
 ! D82   D(27,23,24,28)         -0.0012         estimate D2E/DX2                !
 ! D83   D(22,23,27,36)       -179.9906         estimate D2E/DX2                !
 ! D84   D(24,23,27,36)          0.0085         estimate D2E/DX2                !
 ! D85   D(23,24,25,11)        179.9973         estimate D2E/DX2                !
 ! D86   D(23,24,25,26)         -0.0047         estimate D2E/DX2                !
 ! D87   D(28,24,25,11)         -0.0006         estimate D2E/DX2                !
 ! D88   D(28,24,25,26)        179.9975         estimate D2E/DX2                !
 ! D89   D(11,25,26,22)       -179.9959         estimate D2E/DX2                !
 ! D90   D(24,25,26,22)          0.0059         estimate D2E/DX2                !
 ! D91   D(23,27,36,37)         59.4182         estimate D2E/DX2                !
 ! D92   D(23,27,36,38)        -59.4283         estimate D2E/DX2                !
 ! D93   D(23,27,36,43)        179.9951         estimate D2E/DX2                !
 ! D94   D(22,29,30,31)        179.9947         estimate D2E/DX2                !
 ! D95   D(22,29,30,34)         -0.0019         estimate D2E/DX2                !
 ! D96   D(33,29,30,31)         -0.0093         estimate D2E/DX2                !
 ! D97   D(33,29,30,34)        179.9941         estimate D2E/DX2                !
 ! D98   D(22,29,33,32)       -179.9901         estimate D2E/DX2                !
 ! D99   D(30,29,33,32)          0.0135         estimate D2E/DX2                !
 ! D100  D(29,30,31,32)         -0.0022         estimate D2E/DX2                !
 ! D101  D(29,30,31,35)       -179.9957         estimate D2E/DX2                !
 ! D102  D(34,30,31,32)        179.9941         estimate D2E/DX2                !
 ! D103  D(34,30,31,35)          0.0006         estimate D2E/DX2                !
 ! D104  D(29,30,34,39)        179.9995         estimate D2E/DX2                !
 ! D105  D(31,30,34,39)          0.0032         estimate D2E/DX2                !
 ! D106  D(30,31,32,33)          0.0131         estimate D2E/DX2                !
 ! D107  D(30,31,32,42)       -179.9956         estimate D2E/DX2                !
 ! D108  D(35,31,32,33)       -179.9934         estimate D2E/DX2                !
 ! D109  D(35,31,32,42)         -0.002          estimate D2E/DX2                !
 ! D110  D(31,32,33,29)         -0.0153         estimate D2E/DX2                !
 ! D111  D(42,32,33,29)        179.9925         estimate D2E/DX2                !
 ! D112  D(30,34,39,40)        -59.455          estimate D2E/DX2                !
 ! D113  D(30,34,39,41)         59.4557         estimate D2E/DX2                !
 ! D114  D(30,34,39,52)       -179.9998         estimate D2E/DX2                !
 ! D115  D(27,36,43,44)        -60.002          estimate D2E/DX2                !
 ! D116  D(27,36,43,45)         60.0012         estimate D2E/DX2                !
 ! D117  D(27,36,43,56)        179.9996         estimate D2E/DX2                !
 ! D118  D(37,36,43,44)         59.13           estimate D2E/DX2                !
 ! D119  D(37,36,43,45)        179.1332         estimate D2E/DX2                !
 ! D120  D(37,36,43,56)        -60.8684         estimate D2E/DX2                !
 ! D121  D(38,36,43,44)       -179.1339         estimate D2E/DX2                !
 ! D122  D(38,36,43,45)        -59.1307         estimate D2E/DX2                !
 ! D123  D(38,36,43,56)         60.8677         estimate D2E/DX2                !
 ! D124  D(34,39,52,53)        -60.0032         estimate D2E/DX2                !
 ! D125  D(34,39,52,54)         60.0027         estimate D2E/DX2                !
 ! D126  D(34,39,52,58)        179.9999         estimate D2E/DX2                !
 ! D127  D(40,39,52,53)       -179.1747         estimate D2E/DX2                !
 ! D128  D(40,39,52,54)        -59.1688         estimate D2E/DX2                !
 ! D129  D(40,39,52,58)         60.8284         estimate D2E/DX2                !
 ! D130  D(41,39,52,53)         59.1683         estimate D2E/DX2                !
 ! D131  D(41,39,52,54)        179.1741         estimate D2E/DX2                !
 ! D132  D(41,39,52,58)        -60.8287         estimate D2E/DX2                !
 ! D133  D(36,43,56,63)        179.8803         estimate D2E/DX2                !
 ! D134  D(44,43,56,63)         58.7029         estimate D2E/DX2                !
 ! D135  D(45,43,56,63)        -58.9421         estimate D2E/DX2                !
 ! D136  D(15,46,55,59)       -179.9516         estimate D2E/DX2                !
 ! D137  D(47,46,55,59)         58.9024         estimate D2E/DX2                !
 ! D138  D(48,46,55,59)        -58.8054         estimate D2E/DX2                !
 ! D139  D(18,49,57,71)        179.8901         estimate D2E/DX2                !
 ! D140  D(50,49,57,71)         58.7127         estimate D2E/DX2                !
 ! D141  D(51,49,57,71)        -58.9324         estimate D2E/DX2                !
 ! D142  D(39,52,58,67)       -174.8102         estimate D2E/DX2                !
 ! D143  D(53,52,58,67)         64.0439         estimate D2E/DX2                !
 ! D144  D(54,52,58,67)        -53.6639         estimate D2E/DX2                !
 ! D145  D(46,55,59,60)        -60.0086         estimate D2E/DX2                !
 ! D146  D(46,55,59,61)         59.9914         estimate D2E/DX2                !
 ! D147  D(46,55,59,62)        179.9914         estimate D2E/DX2                !
 ! D148  D(43,56,63,64)        179.9639         estimate D2E/DX2                !
 ! D149  D(43,56,63,65)        -60.0361         estimate D2E/DX2                !
 ! D150  D(43,56,63,66)         59.9639         estimate D2E/DX2                !
 ! D151  D(49,57,71,72)         59.9927         estimate D2E/DX2                !
 ! D152  D(49,57,71,73)        179.9927         estimate D2E/DX2                !
 ! D153  D(49,57,71,74)        -60.0073         estimate D2E/DX2                !
 ! D154  D(52,58,67,68)        -60.7022         estimate D2E/DX2                !
 ! D155  D(52,58,67,69)         59.2978         estimate D2E/DX2                !
 ! D156  D(52,58,67,70)        179.2978         estimate D2E/DX2                !
 --------------------------------------------------------------------------------
 Trust Radius=3.00D-01 FncErr=1.00D-07 GrdErr=1.00D-06 EigMax=2.50D+02 EigMin=1.00D-04
 Number of steps in this run=    375 maximum allowed number of steps=    444.
 GradGradGradGradGradGradGradGradGradGradGradGradGradGradGradGradGradGrad

 Leave Link  103 at Fri Jan 10 15:41:22 2020, MaxMem=  6710886400 cpu:               0.2 elap:               0.0
 (Enter /apps/gaussian/g16-a03/l202.exe)
 Stoichiometry    C28H34O8S4
 Framework group  C1[X(C28H34O8S4)]
 Deg. of freedom   216
 Full point group                 C1      NOp   1
 Largest Abelian subgroup         C1      NOp   1
 Largest concise Abelian subgroup C1      NOp   1
                         Standard orientation:                         
 ---------------------------------------------------------------------
 Center     Atomic      Atomic             Coordinates (Angstroms)
 Number     Number       Type             X           Y           Z
 ---------------------------------------------------------------------
      1          6           0        4.665170   -0.300720   -0.000347
      2          6           0        5.381899    0.883669    0.002242
      3          6           0        6.805816    0.742692    0.003038
      4          6           0        7.219291   -0.553914    0.001054
      5         16           0        5.843120   -1.709984   -0.001790
      6          8           0        4.690835    2.091392    0.003809
      7          1           0        7.489945    1.576251    0.004958
      8          6           0        3.253082   -0.498440   -0.001783
      9          6           0        2.532793   -1.681987   -0.004355
     10          6           0        1.119172   -1.548571   -0.005201
     11          6           0        0.669880   -0.247953   -0.003317
     12         16           0        2.080388    0.912104   -0.000322
     13          8           0        3.226349   -2.887140   -0.005875
     14          1           0        0.443751   -2.389381   -0.007135
     15          6           0        5.446495    3.345261    0.006456
     16          1           0        6.082295    3.383755   -0.882546
     17          1           0        6.081013    3.380774    0.896498
     18          6           0        2.473399   -4.143715   -0.008595
     19          1           0        1.837656   -4.182656    0.880272
     20          1           0        1.839022   -4.179627   -0.898565
     21          1           0        8.223587   -0.937166    0.001083
     22          6           0       -3.252938    0.498360   -0.005044
     23          6           0       -2.532648    1.681912   -0.002452
     24          6           0       -1.119028    1.548496   -0.001578
     25          6           0       -0.669732    0.247880   -0.003460
     26         16           0       -2.080240   -0.912177   -0.006413
     27          8           0       -3.226186    2.887073   -0.000944
     28          1           0       -0.443605    2.389306    0.000359
     29          6           0       -4.665015    0.300569   -0.006547
     30          6           0       -5.381632   -0.883882   -0.009155
     31          6           0       -6.805559   -0.743041   -0.009972
     32          6           0       -7.219159    0.553526   -0.007964
     33         16           0       -5.843099    1.709728   -0.005243
     34          8           0       -4.690434   -2.091530   -0.010679
     35          1           0       -7.489610   -1.576665   -0.011874
     36          6           0       -2.473211    4.143636    0.001589
     37          1           0       -1.837506    4.182454   -0.887308
     38          1           0       -1.838796    4.179642    0.891528
     39          6           0       -5.445947   -3.345486   -0.013425
     40          1           0       -6.081807   -3.384086    0.875528
     41          1           0       -6.080396   -3.381044   -0.903514
     42          1           0       -8.223491    0.936680   -0.007969
     43          6           0       -3.491416    5.267167    0.002631
     44          1           0       -4.125384    5.209316   -0.881377
     45          1           0       -4.126671    5.206514    0.885524
     46          6           0        4.431207    4.471599    0.007610
     47          1           0        3.797483    4.414849   -0.876704
     48          1           0        3.796204    4.411889    0.890811
     49          6           0        3.491625   -5.267227   -0.009727
     50          1           0        4.126912   -5.206460   -0.892591
     51          1           0        4.125558   -5.209466    0.874310
     52          6           0       -4.430527   -4.471704   -0.014549
     53          1           0       -3.795473   -4.411887   -0.897706
     54          1           0       -3.796866   -4.414912    0.869806
     55          8           0        5.097781    5.736736    0.010211
     56          8           0       -2.827514    6.533709    0.005125
     57          8           0        2.827746   -6.533781   -0.012391
     58          8           0       -5.096953   -5.736919   -0.017240
     59          6           0        4.127715    6.787387    0.012409
     60          1           0        3.515242    6.709163   -0.861467
     61          1           0        3.515093    6.705370    0.885832
     62          1           0        4.626955    7.733777    0.014505
     63          6           0       -3.799791    7.582314    0.003265
     64          1           0       -3.302551    8.529756    0.005768
     65          1           0       -4.409509    7.501817   -0.872329
     66          1           0       -4.414822    7.499990    0.874965
     67          6           0       -4.131749   -6.785091    0.103662
     68          1           0       -3.457856   -6.746898   -0.726585
     69          1           0       -3.583356   -6.661682    1.014121
     70          1           0       -4.631819   -7.730990    0.113915
     71          6           0        3.800047   -7.582360   -0.016016
     72          1           0        4.413318   -7.503124    0.857208
     73          1           0        3.302822   -8.529811   -0.017880
     74          1           0        4.411526   -7.498746   -0.890088
 ---------------------------------------------------------------------
 Rotational constants (GHZ):           0.0589841           0.0430384           0.0249293
 Leave Link  202 at Fri Jan 10 15:41:22 2020, MaxMem=  6710886400 cpu:               0.1 elap:               0.0
 (Enter /apps/gaussian/g16-a03/l301.exe)
 Standard basis: 6-311G (5D, 7F)
 Ernie: Thresh=  0.10000D-02 Tol=  0.10000D-05 Strict=F.
 There are   654 symmetry adapted cartesian basis functions of A   symmetry.
 There are   654 symmetry adapted basis functions of A   symmetry.
   654 basis functions,  1266 primitive gaussians,   654 cartesian basis functions
   165 alpha electrons      165 beta electrons
       nuclear repulsion energy      5215.2798937363 Hartrees.
 IExCor=  402 DFT=T Ex+Corr=B3LYP ExCW=0 ScaHFX=  0.200000
 ScaDFX=  0.800000  0.720000  1.000000  0.810000 ScalE2=  1.000000  1.000000
 IRadAn=      5 IRanWt=     -1 IRanGd=            0 ICorTp=0 IEmpDi=  4
 NAtoms=   74 NActive=   74 NUniq=   74 SFac= 1.00D+00 NAtFMM=   60 NAOKFM=T Big=T
 Integral buffers will be    131072 words long.
 Raffenetti 2 integral format.
 Two-electron integral symmetry is turned on.
 Leave Link  301 at Fri Jan 10 15:41:22 2020, MaxMem=  6710886400 cpu:               0.6 elap:               0.1
 (Enter /apps/gaussian/g16-a03/l302.exe)
 NPDir=0 NMtPBC=     1 NCelOv=     1 NCel=       1 NClECP=     1 NCelD=      1
         NCelK=      1 NCelE2=     1 NClLst=     1 CellRange=     0.0.
 One-electron integrals computed using PRISM.
 One-electron integral symmetry used in STVInt
 NBasis=   654 RedAO= T EigKep=  2.58D-04  NBF=   654
 NBsUse=   654 1.00D-06 EigRej= -1.00D+00 NBFU=   654
 Precomputing XC quadrature grid using
 IXCGrd= 4 IRadAn=           5 IRanWt=          -1 IRanGd=           0 AccXCQ= 0.00D+00.
 Generated NRdTot=       0 NPtTot=           0 NUsed=           0 NTot=          32
 NSgBfM=   578   578   578   578   578 MxSgAt=    74 MxSgA2=    74.
 Leave Link  302 at Fri Jan 10 15:41:24 2020, MaxMem=  6710886400 cpu:              15.3 elap:               1.9
 (Enter /apps/gaussian/g16-a03/l303.exe)
 DipDrv:  MaxL=1.
 Leave Link  303 at Fri Jan 10 15:41:24 2020, MaxMem=  6710886400 cpu:               0.8 elap:               0.1
 (Enter /apps/gaussian/g16-a03/l401.exe)
 ExpMin= 7.71D-02 ExpMax= 9.34D+04 ExpMxC= 3.17D+03 IAcc=3 IRadAn=         5 AccDes= 0.00D+00
 Harris functional with IExCor=  402 and IRadAn=       5 diagonalized for initial guess.
 HarFok:  IExCor=  402 AccDes= 0.00D+00 IRadAn=         5 IDoV= 1 UseB2=F ITyADJ=14
 ICtDFT=  3500011 ScaDFX=  1.000000  1.000000  1.000000  1.000000
 FoFCou: FMM=F IPFlag=           0 FMFlag=      100000 FMFlg1=        2001
         NFxFlg=           0 DoJE=T BraDBF=F KetDBF=T FulRan=T
         wScrn=  0.000000 ICntrl=       500 IOpCl=  0 I1Cent=   200000004 NGrid=           0
         NMat0=    1 NMatS0=      1 NMatT0=    0 NMatD0=    1 NMtDS0=    0 NMtDT0=    0
 Petite list used in FoFCou.
 Harris En= -3281.66220495746    
 JPrj=0 DoOrth=F DoCkMO=F.
 Leave Link  401 at Fri Jan 10 15:41:32 2020, MaxMem=  6710886400 cpu:              63.3 elap:               7.9
 (Enter /apps/gaussian/g16-a03/l502.exe)
 Integral symmetry usage will be decided dynamically.
 Closed shell SCF:
 Using DIIS extrapolation, IDIIS=  1040.
 NGot=  6710886400 LenX=  6710018402 LenY=  6709590032
 Requested convergence on RMS density matrix=1.00D-08 within 128 cycles.
 Requested convergence on MAX density matrix=1.00D-06.
 Requested convergence on             energy=1.00D-06.
 No special actions if energy rises.
 Fock matrices will be formed incrementally for  20 cycles.
 Integral accuracy reduced to 1.0D-05 until final iterations.

 Cycle   1  Pass 0  IDiag  1:
 FoFJK:  IHMeth= 1 ICntrl=       0 DoSepK=F KAlg= 0 I1Cent=           0 FoldK=F
 IRaf= 590000000 NMat=       1 IRICut=       1 DoRegI=T DoRafI=F ISym2E= 0 IDoP0=0 IntGTp=1.
 FoFCou: FMM=T IPFlag=           0 FMFlag=      100000 FMFlg1=        2001
         NFxFlg=           0 DoJE=F BraDBF=F KetDBF=F FulRan=T
         wScrn=  0.000000 ICntrl=         0 IOpCl=  0 I1Cent=           0 NGrid=           0
         NMat0=    1 NMatS0=      1 NMatT0=    0 NMatD0=    1 NMtDS0=    0 NMtDT0=    0
 Symmetry not used in FoFCou.
 FMM levels:  10  Number of levels for PrismC:   9
 E= -3280.79759631835    
 DIIS: error= 3.56D-02 at cycle   1 NSaved=   1.
 NSaved= 1 IEnMin= 1 EnMin= -3280.79759631835     IErMin= 1 ErrMin= 3.56D-02
 ErrMax= 3.56D-02  0.00D+00 EMaxC= 1.00D-01 BMatC= 1.08D+00 BMatP= 1.08D+00
 IDIUse=3 WtCom= 6.44D-01 WtEn= 3.56D-01
 Coeff-Com:  0.100D+01
 Coeff-En:   0.100D+01
 Coeff:      0.100D+01
 Gap=     0.069 Goal=   None    Shift=    0.000
 GapD=    0.069 DampG=0.500 DampE=0.500 DampFc=0.2500 IDamp=-1.
 Damping current iteration by 2.50D-01
 RMSDP=3.63D-03 MaxDP=1.23D-01              OVMax= 2.40D-01

 Cycle   2  Pass 0  IDiag  1:
 RMSU=  9.08D-04    CP:  9.98D-01
 E= -3281.14167872420     Delta-E=       -0.344082405849 Rises=F Damp=T
 DIIS: error= 1.80D-02 at cycle   2 NSaved=   2.
 NSaved= 2 IEnMin= 2 EnMin= -3281.14167872420     IErMin= 2 ErrMin= 1.80D-02
 ErrMax= 1.80D-02  0.00D+00 EMaxC= 1.00D-01 BMatC= 2.73D-01 BMatP= 1.08D+00
 IDIUse=3 WtCom= 8.20D-01 WtEn= 1.80D-01
 Coeff-Com: -0.820D+00 0.182D+01
 Coeff-En:   0.000D+00 0.100D+01
 Coeff:     -0.673D+00 0.167D+01
 Gap=     0.092 Goal=   None    Shift=    0.000
 RMSDP=1.42D-03 MaxDP=9.14D-02 DE=-3.44D-01 OVMax= 2.22D-01

 Cycle   3  Pass 0  IDiag  1:
 RMSU=  1.29D-03    CP:  1.02D+00  1.60D+00
 E= -3281.70003419921     Delta-E=       -0.558355475016 Rises=F Damp=F
 DIIS: error= 5.30D-03 at cycle   3 NSaved=   3.
 NSaved= 3 IEnMin= 3 EnMin= -3281.70003419921     IErMin= 3 ErrMin= 5.30D-03
 ErrMax= 5.30D-03  0.00D+00 EMaxC= 1.00D-01 BMatC= 1.61D-02 BMatP= 2.73D-01
 IDIUse=3 WtCom= 9.47D-01 WtEn= 5.30D-02
 Coeff-Com: -0.221D+00 0.492D+00 0.729D+00
 Coeff-En:   0.000D+00 0.000D+00 0.100D+01
 Coeff:     -0.210D+00 0.466D+00 0.743D+00
 Gap=     0.096 Goal=   None    Shift=    0.000
 RMSDP=4.29D-04 MaxDP=2.97D-02 DE=-5.58D-01 OVMax= 4.70D-02

 Cycle   4  Pass 0  IDiag  1:
 RMSU=  3.05D-04    CP:  1.02D+00  1.64D+00  7.68D-01
 E= -3281.70458369471     Delta-E=       -0.004549495497 Rises=F Damp=F
 DIIS: error= 5.43D-03 at cycle   4 NSaved=   4.
 NSaved= 4 IEnMin= 4 EnMin= -3281.70458369471     IErMin= 3 ErrMin= 5.30D-03
 ErrMax= 5.43D-03  0.00D+00 EMaxC= 1.00D-01 BMatC= 1.20D-02 BMatP= 1.61D-02
 IDIUse=3 WtCom= 9.46D-01 WtEn= 5.43D-02
 Coeff-Com: -0.370D-01 0.887D-01 0.459D+00 0.489D+00
 Coeff-En:   0.000D+00 0.000D+00 0.424D+00 0.576D+00
 Coeff:     -0.349D-01 0.839D-01 0.457D+00 0.494D+00
 Gap=     0.095 Goal=   None    Shift=    0.000
 RMSDP=2.17D-04 MaxDP=8.49D-03 DE=-4.55D-03 OVMax= 2.61D-02

 Cycle   5  Pass 0  IDiag  1:
 RMSU=  1.25D-04    CP:  1.01D+00  1.62D+00  7.84D-01  4.29D-01
 E= -3281.71479535035     Delta-E=       -0.010211655645 Rises=F Damp=F
 DIIS: error= 1.87D-03 at cycle   5 NSaved=   5.
 NSaved= 5 IEnMin= 5 EnMin= -3281.71479535035     IErMin= 5 ErrMin= 1.87D-03
 ErrMax= 1.87D-03  0.00D+00 EMaxC= 1.00D-01 BMatC= 8.70D-04 BMatP= 1.20D-02
 IDIUse=3 WtCom= 9.81D-01 WtEn= 1.87D-02
 Coeff-Com: -0.359D-02 0.157D-01 0.237D+00 0.296D+00 0.454D+00
 Coeff-En:   0.000D+00 0.000D+00 0.000D+00 0.000D+00 0.100D+01
 Coeff:     -0.352D-02 0.154D-01 0.233D+00 0.291D+00 0.465D+00
 Gap=     0.096 Goal=   None    Shift=    0.000
 RMSDP=7.98D-05 MaxDP=4.80D-03 DE=-1.02D-02 OVMax= 1.18D-02

 Cycle   6  Pass 0  IDiag  1:
 RMSU=  4.09D-05    CP:  1.01D+00  1.61D+00  7.94D-01  5.66D-01  5.84D-01
 E= -3281.71559062468     Delta-E=       -0.000795274325 Rises=F Damp=F
 DIIS: error= 6.36D-04 at cycle   6 NSaved=   6.
 NSaved= 6 IEnMin= 6 EnMin= -3281.71559062468     IErMin= 6 ErrMin= 6.36D-04
 ErrMax= 6.36D-04  0.00D+00 EMaxC= 1.00D-01 BMatC= 8.95D-05 BMatP= 8.70D-04
 IDIUse=3 WtCom= 9.94D-01 WtEn= 6.36D-03
 Coeff-Com:  0.499D-02-0.554D-02 0.813D-01 0.107D+00 0.274D+00 0.539D+00
 Coeff-En:   0.000D+00 0.000D+00 0.000D+00 0.000D+00 0.760D-01 0.924D+00
 Coeff:      0.495D-02-0.550D-02 0.808D-01 0.106D+00 0.273D+00 0.541D+00
 Gap=     0.096 Goal=   None    Shift=    0.000
 RMSDP=2.67D-05 MaxDP=1.24D-03 DE=-7.95D-04 OVMax= 4.68D-03

 Cycle   7  Pass 0  IDiag  1:
 RMSU=  1.31D-05    CP:  1.01D+00  1.61D+00  8.01D-01  5.26D-01  6.72D-01
                    CP:  6.76D-01
 E= -3281.71567528267     Delta-E=       -0.000084657991 Rises=F Damp=F
 DIIS: error= 2.02D-04 at cycle   7 NSaved=   7.
 NSaved= 7 IEnMin= 7 EnMin= -3281.71567528267     IErMin= 7 ErrMin= 2.02D-04
 ErrMax= 2.02D-04  0.00D+00 EMaxC= 1.00D-01 BMatC= 1.33D-05 BMatP= 8.95D-05
 IDIUse=3 WtCom= 9.98D-01 WtEn= 2.02D-03
 Coeff-Com:  0.368D-02-0.541D-02 0.198D-01 0.261D-01 0.107D+00 0.341D+00
 Coeff-Com:  0.508D+00
 Coeff-En:   0.000D+00 0.000D+00 0.000D+00 0.000D+00 0.000D+00 0.958D-01
 Coeff-En:   0.904D+00
 Coeff:      0.367D-02-0.540D-02 0.197D-01 0.261D-01 0.106D+00 0.341D+00
 Coeff:      0.509D+00
 Gap=     0.096 Goal=   None    Shift=    0.000
 RMSDP=8.93D-06 MaxDP=4.08D-04 DE=-8.47D-05 OVMax= 1.64D-03

 Initial convergence to 1.0D-05 achieved.  Increase integral accuracy.
 Cycle   8  Pass 1  IDiag  1:
 E= -3281.71557861250     Delta-E=        0.000096670172 Rises=F Damp=F
 DIIS: error= 1.73D-04 at cycle   1 NSaved=   1.
 NSaved= 1 IEnMin= 1 EnMin= -3281.71557861250     IErMin= 1 ErrMin= 1.73D-04
 ErrMax= 1.73D-04  0.00D+00 EMaxC= 1.00D-01 BMatC= 5.52D-06 BMatP= 5.52D-06
 IDIUse=3 WtCom= 9.98D-01 WtEn= 1.73D-03
 Coeff-Com:  0.100D+01
 Coeff-En:   0.100D+01
 Coeff:      0.100D+01
 Gap=     0.096 Goal=   None    Shift=    0.000
 RMSDP=8.93D-06 MaxDP=4.08D-04 DE= 9.67D-05 OVMax= 1.07D-03

 Cycle   9  Pass 1  IDiag  1:
 RMSU=  8.43D-05    CP:  1.00D+00
 E= -3281.71558116146     Delta-E=       -0.000002548957 Rises=F Damp=F
 DIIS: error= 1.03D-04 at cycle   2 NSaved=   2.
 NSaved= 2 IEnMin= 2 EnMin= -3281.71558116146     IErMin= 2 ErrMin= 1.03D-04
 ErrMax= 1.03D-04  0.00D+00 EMaxC= 1.00D-01 BMatC= 3.51D-06 BMatP= 5.52D-06
 IDIUse=3 WtCom= 9.99D-01 WtEn= 1.03D-03
 Coeff-Com:  0.419D+00 0.581D+00
 Coeff-En:   0.282D+00 0.718D+00
 Coeff:      0.418D+00 0.582D+00
 Gap=     0.096 Goal=   None    Shift=    0.000
 RMSDP=7.32D-06 MaxDP=3.44D-04 DE=-2.55D-06 OVMax= 1.42D-03

 Cycle  10  Pass 1  IDiag  1:
 RMSU=  7.30D-06    CP:  1.00D+00  1.01D+00
 E= -3281.71558202912     Delta-E=       -0.000000867662 Rises=F Damp=F
 DIIS: error= 9.95D-05 at cycle   3 NSaved=   3.
 NSaved= 3 IEnMin= 3 EnMin= -3281.71558202912     IErMin= 3 ErrMin= 9.95D-05
 ErrMax= 9.95D-05  0.00D+00 EMaxC= 1.00D-01 BMatC= 2.66D-06 BMatP= 3.51D-06
 IDIUse=1 WtCom= 1.00D+00 WtEn= 0.00D+00
 Coeff-Com:  0.160D-01 0.461D+00 0.523D+00
 Coeff:      0.160D-01 0.461D+00 0.523D+00
 Gap=     0.096 Goal=   None    Shift=    0.000
 RMSDP=4.02D-06 MaxDP=2.43D-04 DE=-8.68D-07 OVMax= 8.32D-04

 Cycle  11  Pass 1  IDiag  1:
 RMSU=  1.15D-06    CP:  1.00D+00  1.01D+00  4.80D-01
 E= -3281.71558505455     Delta-E=       -0.000003025430 Rises=F Damp=F
 DIIS: error= 1.56D-05 at cycle   4 NSaved=   4.
 NSaved= 4 IEnMin= 4 EnMin= -3281.71558505455     IErMin= 4 ErrMin= 1.56D-05
 ErrMax= 1.56D-05  0.00D+00 EMaxC= 1.00D-01 BMatC= 1.10D-07 BMatP= 2.66D-06
 IDIUse=1 WtCom= 1.00D+00 WtEn= 0.00D+00
 Coeff-Com: -0.280D-02 0.274D+00 0.334D+00 0.395D+00
 Coeff:     -0.280D-02 0.274D+00 0.334D+00 0.395D+00
 Gap=     0.096 Goal=   None    Shift=    0.000
 RMSDP=9.01D-07 MaxDP=6.41D-05 DE=-3.03D-06 OVMax= 1.48D-04

 Cycle  12  Pass 1  IDiag  1:
 RMSU=  3.27D-07    CP:  1.00D+00  1.01D+00  5.34D-01  3.61D-01
 E= -3281.71558517912     Delta-E=       -0.000000124575 Rises=F Damp=F
 DIIS: error= 3.60D-06 at cycle   5 NSaved=   5.
 NSaved= 5 IEnMin= 5 EnMin= -3281.71558517912     IErMin= 5 ErrMin= 3.60D-06
 ErrMax= 3.60D-06  0.00D+00 EMaxC= 1.00D-01 BMatC= 5.79D-09 BMatP= 1.10D-07
 IDIUse=1 WtCom= 1.00D+00 WtEn= 0.00D+00
 Coeff-Com: -0.265D-02 0.158D+00 0.195D+00 0.257D+00 0.393D+00
 Coeff:     -0.265D-02 0.158D+00 0.195D+00 0.257D+00 0.393D+00
 Gap=     0.096 Goal=   None    Shift=    0.000
 RMSDP=1.99D-07 MaxDP=1.15D-05 DE=-1.25D-07 OVMax= 2.71D-05

 Cycle  13  Pass 1  IDiag  1:
 RMSU=  1.28D-07    CP:  1.00D+00  1.01D+00  5.31D-01  4.13D-01  5.77D-01
 E= -3281.71558518517     Delta-E=       -0.000000006050 Rises=F Damp=F
 DIIS: error= 9.45D-07 at cycle   6 NSaved=   6.
 NSaved= 6 IEnMin= 6 EnMin= -3281.71558518517     IErMin= 6 ErrMin= 9.45D-07
 ErrMax= 9.45D-07  0.00D+00 EMaxC= 1.00D-01 BMatC= 3.23D-10 BMatP= 5.79D-09
 IDIUse=1 WtCom= 1.00D+00 WtEn= 0.00D+00
 Coeff-Com: -0.151D-02 0.835D-01 0.103D+00 0.138D+00 0.254D+00 0.423D+00
 Coeff:     -0.151D-02 0.835D-01 0.103D+00 0.138D+00 0.254D+00 0.423D+00
 Gap=     0.096 Goal=   None    Shift=    0.000
 RMSDP=5.09D-08 MaxDP=2.97D-06 DE=-6.05D-09 OVMax= 4.86D-06

 Cycle  14  Pass 1  IDiag  1:
 RMSU=  3.26D-08    CP:  1.00D+00  1.01D+00  5.31D-01  4.10D-01  6.28D-01
                    CP:  7.28D-01
 E= -3281.71558518552     Delta-E=       -0.000000000346 Rises=F Damp=F
 DIIS: error= 2.54D-07 at cycle   7 NSaved=   7.
 NSaved= 7 IEnMin= 7 EnMin= -3281.71558518552     IErMin= 7 ErrMin= 2.54D-07
 ErrMax= 2.54D-07  0.00D+00 EMaxC= 1.00D-01 BMatC= 1.96D-11 BMatP= 3.23D-10
 IDIUse=1 WtCom= 1.00D+00 WtEn= 0.00D+00
 Coeff-Com: -0.332D-03 0.165D-01 0.201D-01 0.282D-01 0.705D-01 0.213D+00
 Coeff-Com:  0.652D+00
 Coeff:     -0.332D-03 0.165D-01 0.201D-01 0.282D-01 0.705D-01 0.213D+00
 Coeff:      0.652D+00
 Gap=     0.096 Goal=   None    Shift=    0.000
 RMSDP=1.47D-08 MaxDP=6.37D-07 DE=-3.46D-10 OVMax= 2.39D-06

 Cycle  15  Pass 1  IDiag  1:
 RMSU=  1.22D-08    CP:  1.00D+00  1.01D+00  5.31D-01  4.10D-01  6.33D-01
                    CP:  7.64D-01  8.10D-01
 E= -3281.71558518551     Delta-E=        0.000000000011 Rises=F Damp=F
 DIIS: error= 1.49D-07 at cycle   8 NSaved=   8.
 NSaved= 8 IEnMin= 7 EnMin= -3281.71558518552     IErMin= 8 ErrMin= 1.49D-07
 ErrMax= 1.49D-07  0.00D+00 EMaxC= 1.00D-01 BMatC= 8.23D-12 BMatP= 1.96D-11
 IDIUse=1 WtCom= 1.00D+00 WtEn= 0.00D+00
 Coeff-Com:  0.468D-04-0.404D-02-0.512D-02-0.596D-02 0.251D-02 0.651D-01
 Coeff-Com:  0.449D+00 0.498D+00
 Coeff:      0.468D-04-0.404D-02-0.512D-02-0.596D-02 0.251D-02 0.651D-01
 Coeff:      0.449D+00 0.498D+00
 Gap=     0.096 Goal=   None    Shift=    0.000
 RMSDP=8.16D-09 MaxDP=4.67D-07 DE= 1.09D-11 OVMax= 9.11D-07

 SCF Done:  E(RB3LYP) =  -3281.71558519     A.U. after   15 cycles
            NFock= 15  Conv=0.82D-08     -V/T= 2.0021
 KE= 3.274822630428D+03 PE=-1.816280308076D+04 EE= 6.390984971408D+03
 Leave Link  502 at Fri Jan 10 15:43:58 2020, MaxMem=  6710886400 cpu:            1159.0 elap:             145.2
 (Enter /apps/gaussian/g16-a03/l601.exe)
 Copying SCF densities to generalized density rwf, IOpCl= 0 IROHF=0.

 **********************************************************************

            Population analysis using the SCF density.

 **********************************************************************

 Orbital symmetries:
       Occupied  (A) (A) (A) (A) (A) (A) (A) (A) (A) (A) (A) (A)
                 (A) (A) (A) (A) (A) (A) (A) (A) (A) (A) (A) (A)
                 (A) (A) (A) (A) (A) (A) (A) (A) (A) (A) (A) (A)
                 (A) (A) (A) (A) (A) (A) (A) (A) (A) (A) (A) (A)
                 (A) (A) (A) (A) (A) (A) (A) (A) (A) (A) (A) (A)
                 (A) (A) (A) (A) (A) (A) (A) (A) (A) (A) (A) (A)
                 (A) (A) (A) (A) (A) (A) (A) (A) (A) (A) (A) (A)
                 (A) (A) (A) (A) (A) (A) (A) (A) (A) (A) (A) (A)
                 (A) (A) (A) (A) (A) (A) (A) (A) (A) (A) (A) (A)
                 (A) (A) (A) (A) (A) (A) (A) (A) (A) (A) (A) (A)
                 (A) (A) (A) (A) (A) (A) (A) (A) (A) (A) (A) (A)
                 (A) (A) (A) (A) (A) (A) (A) (A) (A) (A) (A) (A)
                 (A) (A) (A) (A) (A) (A) (A) (A) (A) (A) (A) (A)
                 (A) (A) (A) (A) (A) (A) (A) (A) (A)
       Virtual   (A) (A) (A) (A) (A) (A) (A) (A) (A) (A) (A) (A)
                 (A) (A) (A) (A) (A) (A) (A) (A) (A) (A) (A) (A)
                 (A) (A) (A) (A) (A) (A) (A) (A) (A) (A) (A) (A)
                 (A) (A) (A) (A) (A) (A) (A) (A) (A) (A) (A) (A)
                 (A) (A) (A) (A) (A) (A) (A) (A) (A) (A) (A) (A)
                 (A) (A) (A) (A) (A) (A) (A) (A) (A) (A) (A) (A)
                 (A) (A) (A) (A) (A) (A) (A) (A) (A) (A) (A) (A)
                 (A) (A) (A) (A) (A) (A) (A) (A) (A) (A) (A) (A)
                 (A) (A) (A) (A) (A) (A) (A) (A) (A) (A) (A) (A)
                 (A) (A) (A) (A) (A) (A) (A) (A) (A) (A) (A) (A)
                 (A) (A) (A) (A) (A) (A) (A) (A) (A) (A) (A) (A)
                 (A) (A) (A) (A) (A) (A) (A) (A) (A) (A) (A) (A)
                 (A) (A) (A) (A) (A) (A) (A) (A) (A) (A) (A) (A)
                 (A) (A) (A) (A) (A) (A) (A) (A) (A) (A) (A) (A)
                 (A) (A) (A) (A) (A) (A) (A) (A) (A) (A) (A) (A)
                 (A) (A) (A) (A) (A) (A) (A) (A) (A) (A) (A) (A)
                 (A) (A) (A) (A) (A) (A) (A) (A) (A) (A) (A) (A)
                 (A) (A) (A) (A) (A) (A) (A) (A) (A) (A) (A) (A)
                 (A) (A) (A) (A) (A) (A) (A) (A) (A) (A) (A) (A)
                 (A) (A) (A) (A) (A) (A) (A) (A) (A) (A) (A) (A)
                 (A) (A) (A) (A) (A) (A) (A) (A) (A) (A) (A) (A)
                 (A) (A) (A) (A) (A) (A) (A) (A) (A) (A) (A) (A)
                 (A) (A) (A) (A) (A) (A) (A) (A) (A) (A) (A) (A)
                 (A) (A) (A) (A) (A) (A) (A) (A) (A) (A) (A) (A)
                 (A) (A) (A) (A) (A) (A) (A) (A) (A) (A) (A) (A)
                 (A) (A) (A) (A) (A) (A) (A) (A) (A) (A) (A) (A)
                 (A) (A) (A) (A) (A) (A) (A) (A) (A) (A) (A) (A)
                 (A) (A) (A) (A) (A) (A) (A) (A) (A) (A) (A) (A)
                 (A) (A) (A) (A) (A) (A) (A) (A) (A) (A) (A) (A)
                 (A) (A) (A) (A) (A) (A) (A) (A) (A) (A) (A) (A)
                 (A) (A) (A) (A) (A) (A) (A) (A) (A) (A) (A) (A)
                 (A) (A) (A) (A) (A) (A) (A) (A) (A) (A) (A) (A)
                 (A) (A) (A) (A) (A) (A) (A) (A) (A) (A) (A) (A)
                 (A) (A) (A) (A) (A) (A) (A) (A) (A) (A) (A) (A)
                 (A) (A) (A) (A) (A) (A) (A) (A) (A) (A) (A) (A)
                 (A) (A) (A) (A) (A) (A) (A) (A) (A) (A) (A) (A)
                 (A) (A) (A) (A) (A) (A) (A) (A) (A) (A) (A) (A)
                 (A) (A) (A) (A) (A) (A) (A) (A) (A) (A) (A) (A)
                 (A) (A) (A) (A) (A) (A) (A) (A) (A) (A) (A) (A)
                 (A) (A) (A) (A) (A) (A) (A) (A) (A) (A) (A) (A)
                 (A) (A) (A) (A) (A) (A) (A) (A) (A)
 The electronic state is 1-A.
 Alpha  occ. eigenvalues --  -88.88058 -88.88058 -88.87861 -88.87861 -19.15925
 Alpha  occ. eigenvalues --  -19.15924 -19.15875 -19.15875 -19.12961 -19.12960
 Alpha  occ. eigenvalues --  -19.12827 -19.12824 -10.24814 -10.24814 -10.24736
 Alpha  occ. eigenvalues --  -10.24735 -10.24160 -10.24160 -10.24154 -10.24152
 Alpha  occ. eigenvalues --  -10.22886 -10.22886 -10.22827 -10.22824 -10.22556
 Alpha  occ. eigenvalues --  -10.22515 -10.22263 -10.22262 -10.22157 -10.22157
 Alpha  occ. eigenvalues --  -10.21515 -10.21514 -10.21326 -10.21325 -10.20953
 Alpha  occ. eigenvalues --  -10.20953 -10.18881 -10.18881 -10.18751 -10.18751
 Alpha  occ. eigenvalues --   -7.96716  -7.96715  -7.96515  -7.96515  -5.93053
 Alpha  occ. eigenvalues --   -5.93052  -5.92872  -5.92872  -5.92645  -5.92644
 Alpha  occ. eigenvalues --   -5.92469  -5.92469  -5.92076  -5.92076  -5.91838
 Alpha  occ. eigenvalues --   -5.91838  -1.06839  -1.06838  -1.06762  -1.06762
 Alpha  occ. eigenvalues --   -1.04849  -1.04849  -1.04722  -1.04721  -0.89824
 Alpha  occ. eigenvalues --   -0.88884  -0.88005  -0.86768  -0.80387  -0.79005
 Alpha  occ. eigenvalues --   -0.78981  -0.78619  -0.77595  -0.76985  -0.73779
 Alpha  occ. eigenvalues --   -0.73647  -0.73257  -0.72912  -0.71990  -0.71211
 Alpha  occ. eigenvalues --   -0.69441  -0.69139  -0.68831  -0.67601  -0.64433
 Alpha  occ. eigenvalues --   -0.63249  -0.63234  -0.63180  -0.62349  -0.60573
 Alpha  occ. eigenvalues --   -0.59110  -0.57551  -0.56109  -0.55545  -0.55443
 Alpha  occ. eigenvalues --   -0.54383  -0.54173  -0.53122  -0.51455  -0.51451
 Alpha  occ. eigenvalues --   -0.51396  -0.51395  -0.49984  -0.48698  -0.48451
 Alpha  occ. eigenvalues --   -0.48442  -0.48152  -0.48032  -0.48000  -0.47828
 Alpha  occ. eigenvalues --   -0.47651  -0.47185  -0.46700  -0.46667  -0.46501
 Alpha  occ. eigenvalues --   -0.46498  -0.45369  -0.45314  -0.45111  -0.44482
 Alpha  occ. eigenvalues --   -0.43741  -0.43210  -0.42962  -0.42507  -0.42090
 Alpha  occ. eigenvalues --   -0.41078  -0.40905  -0.40084  -0.39760  -0.39758
 Alpha  occ. eigenvalues --   -0.39480  -0.39276  -0.38783  -0.38594  -0.38033
 Alpha  occ. eigenvalues --   -0.36927  -0.36922  -0.36714  -0.35691  -0.35201
 Alpha  occ. eigenvalues --   -0.34862  -0.34205  -0.33261  -0.33050  -0.33017
 Alpha  occ. eigenvalues --   -0.32754  -0.32627  -0.32515  -0.32351  -0.32348
 Alpha  occ. eigenvalues --   -0.32338  -0.31407  -0.31338  -0.29296  -0.26907
 Alpha  occ. eigenvalues --   -0.26661  -0.26638  -0.26530  -0.26526  -0.24577
 Alpha  occ. eigenvalues --   -0.24478  -0.23967  -0.23865  -0.20317  -0.16948
 Alpha virt. eigenvalues --   -0.07337  -0.03164  -0.00536   0.00189   0.00499
 Alpha virt. eigenvalues --    0.01570   0.01627   0.03305   0.03803   0.03941
 Alpha virt. eigenvalues --    0.03949   0.04222   0.04462   0.05150   0.05339
 Alpha virt. eigenvalues --    0.05552   0.06165   0.06175   0.06278   0.06653
 Alpha virt. eigenvalues --    0.07112   0.07450   0.07499   0.07719   0.07774
 Alpha virt. eigenvalues --    0.08039   0.08085   0.08296   0.08390   0.08579
 Alpha virt. eigenvalues --    0.09051   0.09122   0.09736   0.09842   0.10516
 Alpha virt. eigenvalues --    0.10697   0.11282   0.11438   0.11566   0.11642
 Alpha virt. eigenvalues --    0.11841   0.12469   0.12556   0.12567   0.12612
 Alpha virt. eigenvalues --    0.12848   0.12919   0.14103   0.14594   0.15014
 Alpha virt. eigenvalues --    0.15047   0.15390   0.15466   0.15570   0.15899
 Alpha virt. eigenvalues --    0.15943   0.16292   0.17651   0.17997   0.18586
 Alpha virt. eigenvalues --    0.19624   0.19939   0.20082   0.20673   0.20696
 Alpha virt. eigenvalues --    0.20767   0.21493   0.21586   0.21685   0.22338
 Alpha virt. eigenvalues --    0.22538   0.22860   0.23004   0.23124   0.23902
 Alpha virt. eigenvalues --    0.24678   0.25438   0.26232   0.26244   0.26868
 Alpha virt. eigenvalues --    0.27066   0.27295   0.28160   0.28994   0.29506
 Alpha virt. eigenvalues --    0.30793   0.30801   0.30948   0.30996   0.31360
 Alpha virt. eigenvalues --    0.32267   0.32881   0.33429   0.33462   0.33548
 Alpha virt. eigenvalues --    0.33608   0.33705   0.33931   0.34131   0.35891
 Alpha virt. eigenvalues --    0.36422   0.36564   0.37085   0.37517   0.38538
 Alpha virt. eigenvalues --    0.38887   0.39781   0.40322   0.40831   0.41009
 Alpha virt. eigenvalues --    0.41180   0.41313   0.41563   0.41708   0.41812
 Alpha virt. eigenvalues --    0.42053   0.42827   0.42932   0.43483   0.43862
 Alpha virt. eigenvalues --    0.44580   0.45088   0.45135   0.45257   0.45724
 Alpha virt. eigenvalues --    0.46134   0.46208   0.46553   0.46790   0.46828
 Alpha virt. eigenvalues --    0.47457   0.47678   0.47816   0.47872   0.48635
 Alpha virt. eigenvalues --    0.48727   0.48770   0.49124   0.49226   0.49648
 Alpha virt. eigenvalues --    0.50077   0.50474   0.51604   0.51676   0.51942
 Alpha virt. eigenvalues --    0.52348   0.52451   0.52712   0.52791   0.53066
 Alpha virt. eigenvalues --    0.53315   0.53545   0.53588   0.53652   0.53738
 Alpha virt. eigenvalues --    0.54639   0.54789   0.55366   0.55426   0.55490
 Alpha virt. eigenvalues --    0.55698   0.56151   0.57032   0.57574   0.58211
 Alpha virt. eigenvalues --    0.58483   0.58721   0.58825   0.58903   0.59181
 Alpha virt. eigenvalues --    0.59329   0.59746   0.59889   0.59973   0.60344
 Alpha virt. eigenvalues --    0.60389   0.60502   0.61328   0.61507   0.61651
 Alpha virt. eigenvalues --    0.61747   0.62318   0.62427   0.62741   0.62881
 Alpha virt. eigenvalues --    0.63073   0.63466   0.63805   0.63889   0.64914
 Alpha virt. eigenvalues --    0.65123   0.65375   0.65726   0.66657   0.66783
 Alpha virt. eigenvalues --    0.66827   0.66850   0.67201   0.67729   0.69253
 Alpha virt. eigenvalues --    0.69625   0.72272   0.72938   0.73109   0.73506
 Alpha virt. eigenvalues --    0.73595   0.74002   0.74268   0.75624   0.76034
 Alpha virt. eigenvalues --    0.76638   0.77972   0.77993   0.79691   0.80443
 Alpha virt. eigenvalues --    0.80804   0.81539   0.83887   0.84641   0.85536
 Alpha virt. eigenvalues --    0.86129   0.86698   0.87408   0.87539   0.88146
 Alpha virt. eigenvalues --    0.88390   0.88729   0.89543   0.89631   0.92343
 Alpha virt. eigenvalues --    0.93180   0.94471   0.94961   0.95238   0.95427
 Alpha virt. eigenvalues --    0.95771   0.96376   0.96731   0.96915   0.96991
 Alpha virt. eigenvalues --    0.97129   0.97709   0.97823   0.98543   1.00840
 Alpha virt. eigenvalues --    1.00935   1.01078   1.01250   1.02158   1.02400
 Alpha virt. eigenvalues --    1.04114   1.04516   1.05702   1.06925   1.08428
 Alpha virt. eigenvalues --    1.13788   1.14292   1.15409   1.16198   1.17193
 Alpha virt. eigenvalues --    1.17950   1.19959   1.20508   1.20750   1.21249
 Alpha virt. eigenvalues --    1.25877   1.27959   1.33756   1.34829   1.36698
 Alpha virt. eigenvalues --    1.38269   1.51781   1.53073   1.55375   1.57030
 Alpha virt. eigenvalues --    1.60485   1.60541   1.60637   1.60692   1.72456
 Alpha virt. eigenvalues --    1.72764   1.74746   1.75434   1.75624   1.76041
 Alpha virt. eigenvalues --    1.76955   1.79139   1.81577   1.81645   1.88956
 Alpha virt. eigenvalues --    1.93827   2.18211   2.18227   2.18321   2.18374
 Alpha virt. eigenvalues --    2.20056   2.20057   2.20255   2.20260   2.23589
 Alpha virt. eigenvalues --    2.23658   2.23819   2.23825   2.24470   2.24627
 Alpha virt. eigenvalues --    2.24916   2.24958   2.25225   2.25244   2.28254
 Alpha virt. eigenvalues --    2.28386   2.28520   2.28581   2.28627   2.28653
[...]
 48,0.00000199,-0.00000967,-0.00001343,-0.00000094,0.00000535,0.0000072
 3,0.00000203,0.00000596,-0.00000295,0.00000126,0.00000100,0.00000236,-
 0.00000160,0.00000562,0.00002452,0.00000160,-0.00000123,-0.00000030,-0
 .00000210,-0.00000131,0.00000036,0.00000070,-0.00001082,-0.00001554,-0
 .00000098,0.00000279,0.00000473,0.00000083,0.00000529,-0.00000206,0.00
 000147,0.00000038,0.00000332,-0.00000048,0.00000878,0.00002265,0.00000
 452,-0.00000162,-0.00000071,-0.00000117,0.00000505,-0.00001242,-0.0000
 0277,-0.00000076,0.00000038,0.00000068,-0.00000147,0.00000056,0.000000
 31,-0.00000163,-0.00001327,-0.00000306,0.00000217,0.00000202,0.0000022
 4,-0.00000071,0.00000078,-0.00000069,0.00000055,-0.00000005,-0.0000008
 5,-0.00000004,-0.00000662,-0.00000165,-0.00000056,0.00000015,0.0000005
 2,0.00000032,0.00000049,0.00000033,0.00000323,-0.00000663,-0.00000349,
 -0.00000149,-0.00000076,0.00000248,0.00000015,0.00000001,-0.00000071,-
 0.00058919,-0.00090333,0.00047974,-0.00001303,-0.00004515,-0.00043858,
 -0.00005520,0.00154509,-0.00006453,-0.00000743,-0.00000405,-0.00001395
 ,0.00000024,-0.00000123,0.00000823,-0.00000197,-0.00000058,-0.00000185
 ,-0.00000275,0.00000896,0.00000312,0.00000146,0.00001074,0.00000182,0.
 00151265,0.00289139,0.00709765,0.00002004,0.00001729,0.00001089,-0.000
 00125,-0.00000343,-0.00000220,0.00000013,0.00000005,0.00000111,0.00000
 119,-0.00000008,0.00000015,-0.00000040,0.00000129,-0.00000030,-0.00000
 374,-0.00000545,-0.00000123,-0.00000034,0.00000117,-0.00000026,0.00000
 069,0.00000027,0.00000004,0.00000137,0.00000013,0.00000069,-0.00002208
 ,-0.00001209,-0.00001693,0.00000217,-0.00000025,0.00001373,-0.00000218
 ,0.00000178,-0.00000429,0.00000366,-0.00000106,-0.00000057,0.11107807,
 -0.00528826,-0.21955059,-0.12619618,0.00318622,0.23415695,-0.00003068,
 -0.00000688,-0.00000002,-0.00000298,-0.00000031,0.,0.00000667,0.000017
 90,-0.00000004,0.00002718,-0.00001944,0.00000009,-0.00000591,0.0000030
 4,-0.00000001,0.00000194,0.00001656,-0.00000004,0.00000026,0.00000160,
 0.,-0.00003114,-0.00001556,0.,0.00008326,-0.00003771,0.00000019,0.0000
 1508,-0.00000967,0.00000005,-0.00000371,-0.00000777,0.00000002,-0.0000
 0926,-0.00001628,0.00000002,-0.00032490,-0.00049778,0.00000088,-0.0000
 0607,0.00000239,-0.00000002,0.00000364,-0.00000726,0.00000002,-0.00000
 050,-0.00000016,0.00000047,-0.00000050,-0.00000016,-0.00000047,0.00118
 636,-0.00056857,0.00000247,0.00003813,0.00004957,-0.00007091,0.0000380
 1,0.00005004,0.00007077,0.00000274,-0.00000473,0.00000002,-0.00000347,
 0.00000353,-0.00000008,-0.00000086,-0.00000954,0.00000002,-0.00000166,
 0.00000324,0.,0.00000271,-0.00000443,0.00000001,-0.00000026,-0.0000002
 2,0.,0.00000262,0.00001066,-0.00000002,-0.00000044,0.00000028,0.,-0.00
 000038,-0.00000126,0.,-0.00000292,-0.00000323,0.,0.00000067,0.00000269
 ,0.,0.00000491,-0.00000082,0.,-0.00000061,0.00000120,0.,0.00000308,0.0
 0000448,0.,-0.00000062,-0.00000062,0.,0.00000157,-0.00000513,0.0000000
 1,-0.00000041,0.00000021,0.00000033,-0.00000041,0.00000021,-0.00000033
 ,-0.00000275,-0.00000330,0.,0.00000102,0.00000065,0.00000098,0.0000010
 2,0.00000064,-0.00000098,0.00000029,0.00000006,0.,-0.00000050,-0.00000
 296,0.,0.00000004,0.00000016,-0.00000014,0.00000004,0.00000016,0.00000
 014,-0.00000056,-0.00000480,0.00000001,-0.00000002,0.00000039,-0.00000
 017,-0.00000002,0.00000040,0.00000017,-0.00235681,-0.00389902,0.000006
 53,0.00007794,-0.00025167,0.00030179,0.00007904,-0.00025432,-0.0003007
 1,-0.00000494,0.00000014,-0.00000004,-0.00000064,-0.00000080,0.0000036
 9,-0.00000063,-0.00000082,-0.00000367,0.00000164,0.00000817,-0.0000000
 2,0.00000156,0.00000530,-0.00000001,0.01165028,-0.02651843,0.00008430,
 0.00001421,0.00000702,0.00000003,-0.00000300,-0.00000425,0.,0.00000081
 ,0.00000015,-0.00000029,0.00000081,0.00000016,0.00000029,-0.00000028,0
 .00000086,0.,-0.00000242,-0.00000293,0.,-0.00000019,0.00000044,0.,0.00
 000059,0.00000011,-0.00000034,0.00000059,0.00000011,0.00000034,-0.0000
 1468,-0.00000524,-0.00000005,-0.00000176,0.00000046,0.00000823,-0.0000
 0174,0.00000042,-0.00000821,0.00000418,-0.00000139,0.,-0.15387074,0.14
 023232,-0.00050142,-0.00958501,0.01426768,-0.00159905,0.16256376,-0.00
 002138,0.00002515,-0.00000009,0.00006770,0.00004537,-0.00000003,-0.000
 01421,-0.00004420,0.00000009,-0.00001939,0.00003072,-0.00000010,-0.000
 03158,0.00002848,-0.00000012,-0.00002391,-0.00010533,0.00000024,0.0000
 0048,-0.00001029,0.00000003,-0.00005035,-0.00010457,0.00000020,0.00034
 608,0.00040434,-0.00000054,-0.00002756,-0.00009519,0.00000018,0.000014
 69,0.00000972,-0.00000002,-0.00002719,-0.00007546,0.00000017,-0.000585
 47,-0.00123978,0.00000246,0.00003596,0.00000856,0.00000004,-0.00002558
 ,0.00005513,-0.00000018,0.00000567,-0.00000345,0.00000114,0.00000567,-
 0.00000346,-0.00000111,0.00154635,-0.00032753,0.00000399,-0.00004621,-
 0.00003226,-0.00010194,-0.00004665,-0.00003195,0.00010191,0.00000414,-
 0.00000345,0.00000001,-0.00000641,-0.00004371,0.00000017,-0.00001850,0
 .00005264,-0.00000017,0.00000027,-0.00001258,0.00000004,0.00003095,-0.
 00001745,0.00000008,0.00001812,0.00000415,0.00000001,-0.00000855,-0.00
 002300,0.00000005,0.00000545,0.00000930,-0.00000001,0.00000324,0.00001
 896,-0.00000005,-0.00004566,-0.00007922,0.00000011,0.00001123,-0.00000
 368,0.00000003,-0.00003500,0.00000044,-0.00000005,0.00000959,0.0000089
 5,-0.00000001,0.00002598,0.00012377,-0.00000028,-0.00000519,0.00000249
 ,-0.00000001,-0.00000052,0.00001047,-0.00000003,0.00000084,0.00000001,
 -0.00000311,0.00000083,0.00000003,0.00000311,0.00001792,-0.00007030,0.
 00000025,-0.00000521,0.00000554,-0.00000110,-0.00000521,0.00000554,0.0
 0000104,-0.00000021,0.00000049,0.,0.00000308,0.00000883,-0.00000001,-0
 .00000078,-0.00000090,0.00000090,-0.00000078,-0.00000091,-0.00000090,0
 .00000051,0.00002214,-0.00000005,0.00000053,-0.00000044,-0.00000139,0.
 00000053,-0.00000044,0.00000139,-0.00552030,-0.00116304,-0.00000363,0.
 00007120,0.00010017,0.00017220,0.00007103,0.00010111,-0.00017150,0.000
 01214,-0.00004802,0.00000019,-0.00000295,-0.00000073,0.00000020,-0.000
 00294,-0.00000072,-0.00000023,-0.00000369,-0.00003634,0.00000009,-0.00
 000621,-0.00001539,0.00000003,0.01174649,-0.03263701,0.00010153,0.0000
 3102,0.00009137,-0.00000024,0.00001270,0.00001710,-0.00000003,-0.00000
 343,-0.00000061,0.00000084,-0.00000343,-0.00000061,-0.00000084,0.00000
 085,-0.00000400,0.00000001,0.00000781,0.00000892,-0.00000001,0.0000004
 4,-0.00000122,0.,-0.00000192,-0.00000045,0.00000117,-0.00000192,-0.000
 00046,-0.00000117,-0.00005655,-0.00004945,0.00000013,0.00000478,-0.000
 00164,0.00001748,0.00000485,-0.00000174,-0.00001750,0.00000037,0.00000
 397,0.,0.12787409,-0.21119131,0.00058582,0.00074672,0.00171694,0.00041
 047,-0.13674180,0.24273005,0.00000001,-0.00000007,0.00000297,-0.000000
 18,-0.00000011,0.00000065,0.00000005,0.00000014,-0.00000034,0.00000008
 ,-0.00000010,0.00000301,0.00000008,-0.00000009,-0.00000594,0.00000007,
 0.00000029,-0.00000156,0.,0.00000003,-0.00000015,0.00000010,0.00000024
 ,-0.00000473,-0.00000081,-0.00000107,0.00001348,0.00000010,0.00000021,
 -0.00000931,-0.00000004,-0.00000004,-0.00000159,0.00000006,0.00000018,
 0.00000069,0.00000110,0.00000258,0.00000188,-0.00000011,0.,0.00000866,
 0.00000007,-0.00000015,0.00000107,-0.00000027,0.,-0.00000020,0.0000002
 4,0.00000002,-0.00000020,-0.00000301,0.00000125,0.00043994,0.00003145,
 0.00004187,-0.00001576,-0.00003107,-0.00004165,-0.00001597,0.,0.,-0.00
 000078,0.00000002,0.00000011,-0.00000194,0.00000005,-0.00000015,0.0000
 0068,0.,0.00000003,-0.00000114,-0.00000007,0.00000004,-0.00000114,-0.0
 0000005,0.,0.00000166,0.00000003,0.00000007,-0.00000115,-0.00000002,-0
 .00000002,0.00000131,0.,-0.00000005,-0.00000059,0.00000011,0.00000020,
 0.00000098,-0.00000003,0.00000001,-0.00000091,0.00000010,0.,-0.0000013
 6,-0.00000003,-0.00000002,0.00000040,-0.00000006,-0.00000032,-0.000005
 03,0.00000001,0.,0.00000125,0.,-0.00000003,0.00000180,-0.00000026,0.00
 000006,-0.00000031,0.00000026,-0.00000006,-0.00000032,-0.00000005,0.00
 000018,0.00000291,-0.00000186,-0.00000098,-0.00000090,0.00000190,0.000
 00095,-0.00000091,0.,0.,0.00000082,-0.00000001,-0.00000002,0.00000124,
 0.00000029,0.00000012,-0.00000031,-0.00000029,-0.00000012,-0.00000031,
 0.,-0.00000006,0.00000148,0.00000024,0.00000010,-0.00000034,-0.0000002
 4,-0.00000009,-0.00000034,0.00001076,-0.00000131,0.00028837,0.00013618
 ,-0.00037872,0.00020737,-0.00013678,0.00037866,0.00020511,-0.00000007,
 0.00000018,0.00002041,-0.00000143,0.00000095,-0.00000472,0.00000145,-0
 .00000097,-0.00000472,0.00000001,0.00000010,-0.00000116,0.00000002,0.0
 0000004,-0.00000121,-0.00001551,0.00005019,0.00025205,-0.00000003,-0.0
 0000027,-0.00001797,-0.00000004,-0.00000005,0.00000097,0.00000022,-0.0
 0000003,-0.00000028,-0.00000020,0.00000004,-0.00000027,0.,0.00000001,0
 .00000011,-0.00000002,-0.00000002,0.00000086,0.,0.,0.00000014,0.000000
 23,-0.00000004,-0.00000025,-0.00000021,0.00000004,-0.00000025,0.000000
 07,0.00000020,0.00003257,-0.00000358,0.00000271,-0.00000925,0.00000358
 ,-0.00000275,-0.00000916,0.,-0.00000001,0.00000103,-0.00046909,0.00060
 227,-0.05160546,0.01753689,-0.02239735,0.00078747,0.00050749,-0.000687
 11,0.04881459,-0.00002395,0.00001364,0.00000457,0.00005828,0.00004508,
 -0.00000159,-0.00001058,-0.00003173,0.00000164,-0.00000218,0.00001981,
 0.00000812,-0.00003205,0.00002951,-0.00000425,-0.00002028,-0.00009811,
 0.00000312,0.00000060,-0.00000949,-0.00000255,-0.00001847,-0.00006990,
 0.00000302,0.00025108,0.00039588,-0.00000944,-0.00005387,-0.00005989,0
 .00001108,0.00002203,0.00002218,0.00000278,-0.00001861,-0.00006227,-0.
 00000267,-0.00017862,-0.00080586,0.00007952,0.00003196,0.00001115,-0.0
 0001254,-0.00002443,0.00005175,-0.00000396,0.00000624,-0.00000384,0.00
 000236,0.00000502,-0.00000364,-0.00000102,0.00035365,0.00046027,0.0000
 7046,0.00018878,0.00020236,0.00007595,-0.00003263,0.00000430,0.0000014
 5,0.00000467,-0.00000422,-0.00000400,0.00000545,-0.00002366,0.00000277
 ,-0.00000056,0.00004612,-0.00000098,-0.00000387,-0.00001632,0.00000190
 ,0.00001059,-0.00000459,0.00000109,0.00000859,0.00000277,-0.00000198,-
 0.00001126,-0.00004169,0.00000166,0.00000438,0.00000488,-0.00000211,0.
 00000310,0.00000992,0.00000069,-0.00001026,-0.00002201,-0.00000108,0.0
 0000224,-0.00000827,0.00000093,-0.00002616,0.00000297,0.00000146,0.000
 00479,0.00000007,-0.00000047,0.00000256,0.00003531,0.00000524,-0.00000
 061,0.00000230,-0.00000127,-0.00000636,0.00002014,-0.00000274,0.000002
 19,-0.00000074,-0.00000154,0.00000150,-0.00000054,0.00000249,0.0000125
 6,-0.00001817,-0.00000305,-0.00000262,0.00000163,-0.00000157,-0.000006
 16,0.00000003,0.00000331,-0.00000082,0.00000020,-0.00000089,0.00000214
 ,0.00001200,-0.00000163,-0.00000080,-0.00000099,0.00000080,0.00000003,
 -0.00000066,0.00000002,-0.00000095,0.00002011,-0.00000300,-0.00000002,
 -0.00000051,-0.00000124,0.00000122,0.00000010,0.00000268,-0.00022207,0
 .00334031,0.00064909,0.00074299,-0.00133054,0.00034906,0.00014285,-0.0
 0043824,-0.00000910,0.00001474,-0.00001767,-0.00001812,0.00000215,0.00
 000063,-0.00000439,-0.00000041,0.00000182,0.00001277,-0.00000129,-0.00
 003200,0.00000257,-0.00000531,-0.00002026,0.00000176,-0.01915184,-0.01
 319638,-0.01636887,-0.00001648,0.00001798,0.00001387,0.00001004,0.0000
 1449,-0.00000186,-0.00000339,-0.00000040,0.00000078,-0.00000254,-0.000
 00050,0.00000026,0.00000088,-0.00000373,-0.00000022,0.00000864,0.00001
 083,-0.00000118,0.00000059,-0.00000192,-0.00000021,-0.00000256,-0.0000
 0042,0.00000137,-0.00000193,-0.00000054,-0.00000069,0.00000648,-0.0000
 0520,-0.00002307,0.00000718,-0.00000325,-0.00000247,0.00000184,-0.0000
 0060,0.00001537,-0.00000685,0.00000391,-0.00000040,-0.12513159,0.00531
 039,-0.10962654,0.01173532,0.00087937,0.01643026,-0.00954224,0.0006563
 7,-0.01756784,0.14091725,-0.00003000,0.00000016,0.00000544,0.00001452,
 0.00001392,0.00000120,-0.00000091,0.00000468,-0.00000031,0.00001962,-0
 .00000520,0.00000474,-0.00001366,0.00000548,-0.00000631,-0.00000418,-0
 .00001912,-0.00000049,0.00000079,-0.00000143,-0.00000091,-0.00001090,-
 0.00003156,-0.00000383,0.00013717,0.00016314,0.00002325,-0.00002331,-0
 .00000659,-0.00000510,0.00001242,0.00000809,0.00000188,-0.00000572,-0.
 00002366,-0.00000390,-0.00000897,-0.00044538,0.00011701,0.00001142,0.0
 0000594,-0.00000066,-0.00000478,0.00001138,-0.00000040,0.00000138,-0.0
 0000127,0.00000088,0.00000140,-0.00000129,-0.00000081,0.00002124,0.000
 27902,0.00001326,0.00027753,0.00006604,0.00012931,0.00002035,0.0000475
 3,-0.00002293,0.00000334,-0.00000392,-0.00000036,0.00000362,-0.0000038
 3,0.00000006,0.00000045,0.00000964,0.00000027,-0.00000205,-0.00000443,
 -0.00000018,0.00000113,-0.00000094,-0.00000075,0.00000247,0.00000056,0
 .00000016,-0.00000268,-0.00001019,-0.00000026,0.00000102,0.00000116,0.
 00000001,0.00000087,0.00000220,-0.00000018,-0.00000397,-0.00000710,0.0
 0000021,0.00000100,-0.00000165,-0.00000025,-0.00000627,0.00000027,-0.0
 0000039,0.00000106,0.00000062,0.00000010,0.00000108,0.00001308,-0.0000
 0114,-0.00000039,0.00000052,0.00000036,-0.00000178,0.00000479,0.000000
 31,0.00000038,-0.00000013,-0.00000050,0.00000051,-0.00000012,0.0000003
 8,0.00000259,-0.00000694,0.00000100,-0.00000186,-0.00000009,-0.0000009
 1,-0.00000097,0.00000039,0.00000040,-0.00000019,0.00000008,0.00000024,
 0.00000054,0.00000272,0.00000033,-0.00000002,-0.00000018,0.,-0.0000001
 5,-0.00000023,-0.00000016,-0.00000108,0.00000373,0.00000016,0.00000024
 ,0.00000017,-0.00000079,0.00000022,0.00000021,0.00000072,-0.00375992,0
 .00539881,-0.00318933,0.00120382,0.00049432,0.00143874,0.00027968,-0.0
 0062204,0.00001995,0.00000936,-0.00001260,0.00000458,-0.00000054,0.000
 00088,-0.00000430,0.00000034,0.00000038,0.00000223,0.00000070,-0.00000
 546,-0.00000015,-0.00000109,-0.00000453,-0.00000029,-0.02601595,-0.013
 56463,-0.02279545,-0.00000033,0.00001902,-0.00000498,0.00000140,0.0000
 0226,0.00000018,-0.00000043,-0.00000005,-0.00000015,-0.00000052,-0.000
 00001,0.00000004,0.00000018,-0.00000068,0.00000004,0.00000185,0.000002
 35,0.00000023,0.00000011,-0.00000046,0.00000004,-0.00000043,-0.0000001
 3,0.00000013,-0.00000054,-0.00000010,-0.00000027,-0.00000662,-0.000008
 47,0.00000867,0.00000078,-0.00000100,-0.00000204,0.00000308,-0.0000030
 4,-0.00000292,-0.00000321,0.00000141,0.00000068,0.00817088,-0.05186557
 ,0.00593516,0.00079887,0.00234455,-0.00184514,0.01421584,0.00183145,0.
 02242979,0.00468819,0.05592307,-0.00004045,-0.00000319,0.00000907,0.00
 002296,0.00002419,-0.00000132,0.00000168,0.00000770,0.00000233,0.00003
 104,-0.00001001,0.00001629,-0.00001944,0.00000752,-0.00000878,-0.00000
 545,-0.00003086,0.00000309,0.00000026,-0.00000292,-0.00000467,-0.00001
 683,-0.00002016,0.00000059,0.00012387,0.00015301,-0.00000966,-0.000021
 65,-0.00002180,0.00000943,0.00001801,0.00001177,0.00000026,-0.00000999
 ,-0.00003108,-0.00000048,-0.00013243,-0.00044021,0.00004264,0.00001101
 ,0.00000517,-0.00000818,-0.00000877,0.00001949,-0.00000524,0.00000303,
 -0.00000236,0.00000291,0.00000147,-0.00000194,-0.00000107,0.00043935,0
 .00009991,0.00023611,0.00012745,0.00019529,-0.00000681,0.00003237,0.00
 000765,0.00001295,0.00000548,-0.00000864,-0.00000805,0.00000802,0.0000
 0244,0.00000217,0.00000965,0.00001349,-0.00000099,-0.00000535,-0.00000
 725,0.00000206,-0.00000593,0.00000295,0.00000124,-0.00000099,-0.000002
 35,-0.00000161,-0.00000564,-0.00002457,0.00000172,0.00000124,0.0000003
 0,-0.00000210,0.00000131,-0.00000034,0.00000071,0.00001083,0.00001552,
 -0.00000103,-0.00000278,-0.00000473,0.00000084,-0.00000534,0.00000207,
 0.00000145,-0.00000037,-0.00000333,-0.00000046,-0.00000879,-0.00002262
 ,0.00000464,0.00000162,0.00000071,-0.00000117,-0.00000505,0.00001243,-
 0.00000286,0.00000147,-0.00000056,0.00000031,0.00000076,-0.00000038,0.
 00000069,0.00000166,0.00001325,-0.00000316,0.00000071,-0.00000078,-0.0
 0000068,-0.00000219,-0.00000200,0.00000225,-0.00000055,0.00000005,-0.0
 0000085,0.00000004,0.00000663,-0.00000169,-0.00000032,-0.00000049,0.00
 000034,0.00000056,-0.00000015,0.00000052,-0.00000321,0.00000664,-0.000
 00354,-0.00000015,-0.00000002,-0.00000071,0.00000148,0.00000077,0.0000
 0248,0.00060691,0.00088676,0.00049484,0.00005118,-0.00155160,-0.000062
 78,0.00001312,0.00004489,-0.00043885,0.00000747,0.00000400,-0.00001402
 ,0.00000198,0.00000057,-0.00000184,-0.00000027,0.00000127,0.00000825,0
 .00000273,-0.00000900,0.00000318,-0.00000147,-0.00001075,0.00000188,-0
 .00144760,-0.00281904,0.00718335,-0.00002012,-0.00001729,0.00001098,0.
 00000128,0.00000344,-0.00000222,-0.00000120,0.00000008,0.00000015,-0.0
 0000013,-0.00000004,0.00000111,0.00000040,-0.00000130,-0.00000029,0.00
 000376,0.00000546,-0.00000125,0.00000034,-0.00000117,-0.00000025,-0.00
 000138,-0.00000013,0.00000069,-0.00000069,-0.00000027,0.00000004,0.000
 02219,0.00001203,-0.00001703,0.00000220,-0.00000181,-0.00000427,-0.000
 00222,0.00000033,0.00001378,-0.00000366,0.00000107,-0.00000059,-0.1108
 6985,0.00442909,-0.22019789,-0.01634266,0.00171685,-0.02274725,0.00149
 758,-0.00041416,0.00063033,0.12592443,-0.00224550,0.23485804\\0.000000
 45,-0.00000041,0.00000030,-0.00000275,0.00000325,0.00000025,-0.0000011
 1,-0.00000029,-0.00000011,-0.00000019,-0.00000048,-0.00000003,0.000000
 84,-0.00000063,0.00000005,0.00000147,-0.00000314,-0.00000016,0.0000001
 5,0.00000001,0.,-0.00000019,-0.00000012,-0.00000037,0.00000264,-0.0000
 0235,-0.00000090,0.00000146,-0.00000019,0.00000073,0.00000061,0.000002
 10,-0.00000289,0.00000025,0.00000028,0.00000021,-0.00000235,0.00000260
 ,0.00000050,-0.00000030,0.00000017,0.00000046,-0.00001441,-0.00000432,
 0.00000011,0.00000602,-0.00000008,-0.00000084,0.00000601,-0.00000005,0
 .00000084,0.00001416,0.00000527,-0.00000006,-0.00000598,0.00000034,0.0
 0000078,-0.00000590,-0.00000023,-0.00000073,-0.00000009,0.00000064,0.,
 0.00000021,0.00000011,-0.00000765,-0.00000270,0.00000232,0.00000385,-0
 .00000146,0.00000023,0.00000737,-0.00000058,-0.00000216,-0.00001163,-0
 .00000026,-0.00000023,0.00001232,0.00000236,-0.00000257,-0.00000126,0.
 00000030,-0.00000017,0.00000046,-0.00000044,0.00000038,-0.00000450,0.0
 0000267,-0.00000333,0.00000049,0.00000114,0.00000034,0.00000287,0.0000
 0020,0.00000044,-0.00000335,-0.00000084,0.00000064,0.00000252,-0.00000
 137,0.00000318,0.00000073,-0.00000015,-0.00000002,0.00000047,-0.000014
 15,-0.00000528,0.00000108,0.00000586,-0.00000023,-0.00000080,0.0000060
 2,0.00000012,0.00000071,0.00001452,0.00000438,-0.00000059,-0.00000605,
 -0.00000443,0.00000063,-0.00000612,0.00000453,-0.00000109,0.00000009,-
 0.00000063,-0.00000038,0.00000508,0.00001219,0.00000011,-0.00000277,0.
 00000124,0.00000218,-0.00000282,0.00000150,-0.00000220,0.00000439,0.00
 001296,0.00000004,-0.00000266,0.00000147,0.00000218,-0.00000261,0.0000
 0140,-0.00000224,-0.00000507,-0.00001220,0.00000016,0.00000286,-0.0000
 0106,0.00000217,0.00000273,-0.00000167,-0.00000219,-0.00000443,-0.0000
 1291,0.00000187,0.00000372,-0.00000533,0.00000141,0.00000143,0.0000023
 6,-0.00000295,0.00000845,-0.00000723,-0.00000006,0.00000795,-0.0000065
 2,-0.00000011,-0.00000797,0.00000653,-0.00000052,-0.00000867,0.0000067
 9,-0.00000242,-0.00000044,0.00000716,0.00000004,-0.00000493,-0.0000009
 3,0.00000773,-0.00000491,-0.00000099,-0.00000774,0.00000654,-0.0000072
 2,0.00000003,-0.00000021,0.00000681,-0.00000006,0.00000658,-0.00000715
 ,0.00000007,-0.00000500,-0.00000095,0.00000772,-0.00000491,-0.00000102
 ,-0.00000772,0.00000119,-0.00000637,0.00000290,0.00000459,0.00000051,0
 .00000736,0.00000495,0.00000124,-0.00000793,-0.00000665,0.00000711,-0.
 00000047,0.00000022,-0.00000680,0.00000027,0.00000493,0.00000101,-0.00
 000772,-0.00000658,0.00000715,-0.00000001,0.00000498,0.00000097,0.0000
 0773\\\@


 HICKORY, DICKORY, DOCK
 TWO MICE RAN UP THE CLOCK
 THE CLOCK STRUCK ONE...
 THE OTHER ESCAPED WITH MINOR INJURIES.
 Job cpu time:       0 days  6 hours 57 minutes 15.4 seconds.
 Elapsed time:       0 days  0 hours 52 minutes 11.1 seconds.
 File lengths (MBytes):  RWF=   3776 Int=      0 D2E=      0 Chk=     38 Scr=      1
 Normal termination of Gaussian 16 at Fri Jan 10 17:00:21 2020.
