 Entering Gaussian System, Link 0=g16
 Input=O2G_2m_7sc_opt_freq.gjf
 Output=O2G_2m_7sc_opt_freq.log
 Initial command:
 /apps/gaussian/g16-a03/l1.exe "/tmp/pbs.953398.pbs/Gau-34599.inp" -scrdir="/tmp/pbs.953398.pbs/"
 Entering Link 1 = /apps/gaussian/g16-a03/l1.exe PID=     34600.
  
 Copyright (c) 1988,1990,1992,1993,1995,1998,2003,2009,2016,
            Gaussian, Inc.  All Rights Reserved.
  
 This is part of the Gaussian(R) 16 program.  It is based on
 the Gaussian(R) 09 system (copyright 2009, Gaussian, Inc.),
 the Gaussian(R) 03 system (copyright 2003, Gaussian, Inc.),
 the Gaussian(R) 98 system (copyright 1998, Gaussian, Inc.),
 the Gaussian(R) 94 system (copyright 1995, Gaussian, Inc.),
 the Gaussian 92(TM) system (copyright 1992, Gaussian, Inc.),
 the Gaussian 90(TM) system (copyright 1990, Gaussian, Inc.),
 the Gaussian 88(TM) system (copyright 1988, Gaussian, Inc.),
 the Gaussian 86(TM) system (copyright 1986, Carnegie Mellon
 University), and the Gaussian 82(TM) system (copyright 1983,
 Carnegie Mellon University). Gaussian is a federally registered
 trademark of Gaussian, Inc.
  
 This software contains proprietary and confidential information,
 including trade secrets, belonging to Gaussian, Inc.
  
 This software is provided under written license and may be
 used, copied, transmitted, or stored only in accord with that
 written license.
  
 The following legend is applicable only to US Government
 contracts under FAR:
  
                    RESTRICTED RIGHTS LEGEND
  
 Use, reproduction and disclosure by the US Government is
 subject to restrictions as set forth in subparagraphs (a)
 and (c) of the Commercial Computer Software - Restricted
 Rights clause in FAR 52.227-19.
  
 Gaussian, Inc.
 340 Quinnipiac St., Bldg. 40, Wallingford CT 06492
  
  
 ---------------------------------------------------------------
 Warning -- This program may not be used in any manner that
 competes with the business of Gaussian, Inc. or will provide
 assistance to any competitor of Gaussian, Inc.  The licensee
 of this program is prohibited from giving any competitor of
 Gaussian, Inc. access to this program.  By using this program,
 the user acknowledges that Gaussian, Inc. is engaged in the
 business of creating and licensing software in the field of
 computational chemistry and represents and warrants to the
 licensee that it is not a competitor of Gaussian, Inc. and that
 it will not use this program in any manner prohibited above.
 ---------------------------------------------------------------
  

 Cite this work as:
 Gaussian 16, Revision A.03,
 M. J. Frisch, G. W. Trucks, H. B. Schlegel, G. E. Scuseria, 
 M. A. Robb, J. R. Cheeseman, G. Scalmani, V. Barone, 
 G. A. Petersson, H. Nakatsuji, X. Li, M. Caricato, A. V. Marenich, 
 J. Bloino, B. G. Janesko, R. Gomperts, B. Mennucci, H. P. Hratchian, 
 J. V. Ortiz, A. F. Izmaylov, J. L. Sonnenberg, D. Williams-Young, 
 F. Ding, F. Lipparini, F. Egidi, J. Goings, B. Peng, A. Petrone, 
 T. Henderson, D. Ranasinghe, V. G. Zakrzewski, J. Gao, N. Rega, 
 G. Zheng, W. Liang, M. Hada, M. Ehara, K. Toyota, R. Fukuda, 
 J. Hasegawa, M. Ishida, T. Nakajima, Y. Honda, O. Kitao, H. Nakai, 
 T. Vreven, K. Throssell, J. A. Montgomery, Jr., J. E. Peralta, 
 F. Ogliaro, M. J. Bearpark, J. J. Heyd, E. N. Brothers, K. N. Kudin, 
 V. N. Staroverov, T. A. Keith, R. Kobayashi, J. Normand, 
 K. Raghavachari, A. P. Rendell, J. C. Burant, S. S. Iyengar, 
 J. Tomasi, M. Cossi, J. M. Millam, M. Klene, C. Adamo, R. Cammi, 
 J. W. Ochterski, R. L. Martin, K. Morokuma, O. Farkas, 
 J. B. Foresman, and D. J. Fox, Gaussian, Inc., Wallingford CT, 2016.
 
 ******************************************
 Gaussian 16:  ES64L-G16RevA.03 25-Dec-2016
                13-Jan-2020 
 ******************************************
 %mem=50GB
 %nprocshared=8
 Will use up to    8 processors via shared memory.
 --------------------------------
 #p opt freq=raman b3lyp/6-311g**
 --------------------------------
 1/18=20,19=15,26=3,38=1/1,3;
 2/9=110,12=2,17=6,18=5,40=1/2;
 3/5=4,6=6,7=101,11=2,25=1,30=1,71=1,74=-5/1,2,3;
 4//1;
 5/5=2,38=5/2;
 6/7=2,8=2,9=2,10=2,28=1/1;
 7//1,2,3,16;
 1/18=20,19=15,26=3/3(2);
 2/9=110/2;
 99//99;
 2/9=110/2;
 3/5=4,6=6,7=101,11=2,25=1,30=1,71=1,74=-5/1,2,3;
 4/5=5,16=3,69=1/1;
 5/5=2,38=5/2;
 7//1,2,3,16;
 1/18=20,19=15,26=3/3(-5);
 2/9=110/2;
 6/7=2,8=2,9=2,10=2,19=2,28=1/1;
 99/9=1/99;
 Leave Link    1 at Mon Jan 13 08:24:05 2020, MaxMem=  6710886400 cpu:               0.2 elap:               0.0
 (Enter /apps/gaussian/g16-a03/l101.exe)
 -----------------------
 O2G_2m_7sc_opt_freq.gjf
 -----------------------
 Symbolic Z-matrix:
 Charge =  0 Multiplicity = 1
 C                     4.64366  -0.5397    0.00009 
 C                     5.41896   0.60644   0.00027 
 C                     6.83392   0.39695   0.00037 
 C                     7.18282  -0.91819   0.00028 
 S                     5.75057  -2.00498   0.00004 
 O                     4.78956   1.84688   0.00035 
 H                     7.55693   1.19705   0.00052 
 C                     3.2233   -0.66511  -0.00004 
 C                     2.44219  -1.80851  -0.00023 
 C                     1.03763  -1.60426  -0.00034 
 C                     0.656    -0.28237  -0.00023 
 S                     2.12443   0.80335   0.00002 
 O                     3.07099  -3.04956  -0.00032 
 H                     0.32149  -2.41079  -0.0005 
 C                     5.60299   3.05729   0.00043 
 H                     6.23231   3.09276  -0.89058 
 H                     6.23222   3.0927    0.8915 
 C                     2.25452  -4.25777  -0.00043 
 H                     1.62489  -4.29135   0.89046 
 H                     1.625    -4.29124  -0.89141 
 H                     8.16679  -1.3508    0.00032 
 C                    -3.2233    0.66511  -0.00026 
 C                    -2.44219   1.80851  -0.00027 
 C                    -1.03763   1.60426  -0.00031 
 C                    -0.656     0.28237  -0.0003 
 S                    -2.12443  -0.80335  -0.00053 
 O                    -3.07099   3.04956  -0.00016 
 H                    -0.32149   2.41079  -0.00026 
 C                    -4.64366   0.5397   -0.0001 
 C                    -5.41896  -0.60644  -0.00012 
 C                    -6.83392  -0.39695   0.00009 
 C                    -7.18282   0.91819   0.00031 
 S                    -5.75057   2.00498   0.00016 
 O                    -4.78956  -1.84688  -0.00044 
 H                    -7.55693  -1.19705   0.00007 
 C                    -2.25452   4.25777  -0.00038 
 H                    -1.62508   4.29122  -0.89142 
 H                    -1.62481   4.29137   0.89045 
 C                    -5.60299  -3.05729   0.00088 
 H                    -6.23172  -3.09208   0.89233 
 H                    -6.23281  -3.09338  -0.88975 
 H                    -8.16679   1.3508    0.0005 
 C                    -3.22464   5.4219   -0.00031 
 H                    -3.86164   5.38355  -0.88967 
 H                    -3.86143   5.38361   0.88919 
 C                     4.62985   4.21908   0.00042 
 H                     3.99313   4.17888  -0.88913 
 H                     3.99303   4.1788    0.8899 
 C                     3.22464  -5.4219   -0.00044 
 H                     3.86155  -5.38357  -0.88985 
 H                     3.86151  -5.38359   0.88901 
 C                    -4.62984  -4.21908   0.00091 
 H                    -3.99312  -4.17876  -0.88863 
 H                    -3.99305  -4.17891   0.89041 
 O                     5.44504   5.41725   0.00052 
 O                    -2.40656   6.61883  -0.00045 
 O                     2.40656  -6.61883  -0.00047 
 O                    -5.44504  -5.41725   0.0009 
 C                     4.67985   6.64819   0.00051 
 H                     4.04948   6.7231   -0.8917 
 H                     4.04936   6.72304   0.89264 
 C                    -3.16949   7.85073  -0.00042 
 H                    -3.79992   7.92679  -0.89261 
 H                    -3.79972   7.92688   0.89189 
 C                    -4.67985  -6.64819   0.00057 
 H                    -4.04956  -6.72291  -0.89172 
 H                    -4.04927  -6.72322   0.89262 
 C                     3.16949  -7.85073  -0.00057 
 H                     3.79984  -7.92689   0.89166 
 H                     3.79979  -7.92677  -0.89284 
 C                     5.70782   7.79487   0.00061 
 H                     6.32153   7.72378  -0.873 
 H                     6.32143   7.72372   0.8743 
 C                    -2.14022   8.99625  -0.0006 
 H                    -1.52659   8.92451   0.87302 
 H                    -1.52671   8.92435  -0.87429 
 C                    -5.70782  -7.79487   0.00055 
 H                    -6.32157  -7.72365  -0.87303 
 H                    -6.32138  -7.72385   0.87427 
 C                     2.14022  -8.99625  -0.00062 
 H                     1.52668  -8.9245    0.87306 
 H                     1.52661  -8.92436  -0.87425 
 O                     5.02212   9.04975   0.00062 
 O                    -2.82451   10.2519  -0.00067 
 O                    -5.02212  -9.04975   0.00033 
 O                     2.8245   -10.2519  -0.00075 
 C                     5.97613   10.115    0.00074 
 H                     6.5911    10.04314  -0.87193 
 H                     5.46258   11.05371  -0.00113 
 H                     6.58854   10.04524   0.87537 
 C                    -1.8693    11.31607  -0.00092 
 H                    -2.38178   12.25536  -0.00305 
 H                    -1.25691   11.24588   0.8737 
 H                    -1.25446   11.24326  -0.8736 
 C                    -5.97613  -10.115    0.00043 
 H                    -6.58999  -10.04411  -0.8731 
 H                    -5.46258  -11.05371   0.00024 
 H                    -6.58965  -10.04427   0.87421 
 C                     1.86929  -11.31607  -0.00082 
 H                     1.25565  -11.24448  -0.87444 
 H                     2.38178  -12.25536  -0.00094 
 H                     1.25571  -11.24466   0.87286 
 
 ITRead=  0  0  0  0  0  0  0  0  0  0  0  0  0  0  0  0  0  0  0  0
 ITRead=  0  0  0  0  0  0  0  0  0  0  0  0  0  0  0  0  0  0  0  0
 ITRead=  0  0  0  0  0  0  0  0  0  0  0  0  0  0  0  0  0  0  0  0
 ITRead=  0  0  0  0  0  0  0  0  0  0  0  0  0  0  0  0  0  0  0  0
 ITRead=  0  0  0  0  0  0  0  0  0  0  0  0  0  0  0  0  0  0  0  0
 ITRead=  0  0
 MicOpt= -1 -1 -1 -1 -1 -1 -1 -1 -1 -1 -1 -1 -1 -1 -1 -1 -1 -1 -1 -1
 MicOpt= -1 -1 -1 -1 -1 -1 -1 -1 -1 -1 -1 -1 -1 -1 -1 -1 -1 -1 -1 -1
 MicOpt= -1 -1 -1 -1 -1 -1 -1 -1 -1 -1 -1 -1 -1 -1 -1 -1 -1 -1 -1 -1
 MicOpt= -1 -1 -1 -1 -1 -1 -1 -1 -1 -1 -1 -1 -1 -1 -1 -1 -1 -1 -1 -1
 MicOpt= -1 -1 -1 -1 -1 -1 -1 -1 -1 -1 -1 -1 -1 -1 -1 -1 -1 -1 -1 -1
 MicOpt= -1 -1
 NAtoms=    102 NQM=      102 NQMF=       0 NMMI=      0 NMMIF=      0
                NMic=       0 NMicF=      0.
                    Isotopes and Nuclear Properties:
 (Nuclear quadrupole moments (NQMom) in fm**2, nuclear magnetic moments (NMagM)
  in nuclear magnetons)

  Atom         1           2           3           4           5           6           7           8           9          10
 IAtWgt=          12          12          12          12          32          16           1          12          12          12
 AtmWgt=  12.0000000  12.0000000  12.0000000  12.0000000  31.9720718  15.9949146   1.0078250  12.0000000  12.0000000  12.0000000
 NucSpn=           0           0           0           0           0           0           1           0           0           0
 AtZEff=  -0.0000000  -0.0000000  -0.0000000  -0.0000000  -0.0000000  -0.0000000  -0.0000000  -0.0000000  -0.0000000  -0.0000000
 NQMom=    0.0000000   0.0000000   0.0000000   0.0000000   0.0000000   0.0000000   0.0000000   0.0000000   0.0000000   0.0000000
 NMagM=    0.0000000   0.0000000   0.0000000   0.0000000   0.0000000   0.0000000   2.7928460   0.0000000   0.0000000   0.0000000
 AtZNuc=   6.0000000   6.0000000   6.0000000   6.0000000  16.0000000   8.0000000   1.0000000   6.0000000   6.0000000   6.0000000

  Atom        11          12          13          14          15          16          17          18          19          20
 IAtWgt=          12          32          16           1          12           1           1          12           1           1
 AtmWgt=  12.0000000  31.9720718  15.9949146   1.0078250  12.0000000   1.0078250   1.0078250  12.0000000   1.0078250   1.0078250
 NucSpn=           0           0           0           1           0           1           1           0           1           1
 AtZEff=  -0.0000000  -0.0000000  -0.0000000  -0.0000000  -0.0000000  -0.0000000  -0.0000000  -0.0000000  -0.0000000  -0.0000000
 NQMom=    0.0000000   0.0000000   0.0000000   0.0000000   0.0000000   0.0000000   0.0000000   0.0000000   0.0000000   0.0000000
 NMagM=    0.0000000   0.0000000   0.0000000   2.7928460   0.0000000   2.7928460   2.7928460   0.0000000   2.7928460   2.7928460
 AtZNuc=   6.0000000  16.0000000   8.0000000   1.0000000   6.0000000   1.0000000   1.0000000   6.0000000   1.0000000   1.0000000

  Atom        21          22          23          24          25          26          27          28          29          30
 IAtWgt=           1          12          12          12          12          32          16           1          12          12
 AtmWgt=   1.0078250  12.0000000  12.0000000  12.0000000  12.0000000  31.9720718  15.9949146   1.0078250  12.0000000  12.0000000
 NucSpn=           1           0           0           0           0           0           0           1           0           0
 AtZEff=  -0.0000000  -0.0000000  -0.0000000  -0.0000000  -0.0000000  -0.0000000  -0.0000000  -0.0000000  -0.0000000  -0.0000000
 NQMom=    0.0000000   0.0000000   0.0000000   0.0000000   0.0000000   0.0000000   0.0000000   0.0000000   0.0000000   0.0000000
 NMagM=    2.7928460   0.0000000   0.0000000   0.0000000   0.0000000   0.0000000   0.0000000   2.7928460   0.0000000   0.0000000
 AtZNuc=   1.0000000   6.0000000   6.0000000   6.0000000   6.0000000  16.0000000   8.0000000   1.0000000   6.0000000   6.0000000

  Atom        31          32          33          34          35          36          37          38          39          40
 IAtWgt=          12          12          32          16           1          12           1           1          12           1
 AtmWgt=  12.0000000  12.0000000  31.9720718  15.9949146   1.0078250  12.0000000   1.0078250   1.0078250  12.0000000   1.0078250
 NucSpn=           0           0           0           0           1           0           1           1           0           1
 AtZEff=  -0.0000000  -0.0000000  -0.0000000  -0.0000000  -0.0000000  -0.0000000  -0.0000000  -0.0000000  -0.0000000  -0.0000000
 NQMom=    0.0000000   0.0000000   0.0000000   0.0000000   0.0000000   0.0000000   0.0000000   0.0000000   0.0000000   0.0000000
 NMagM=    0.0000000   0.0000000   0.0000000   0.0000000   2.7928460   0.0000000   2.7928460   2.7928460   0.0000000   2.7928460
 AtZNuc=   6.0000000   6.0000000  16.0000000   8.0000000   1.0000000   6.0000000   1.0000000   1.0000000   6.0000000   1.0000000

  Atom        41          42          43          44          45          46          47          48          49          50
 IAtWgt=           1           1          12           1           1          12           1           1          12           1
 AtmWgt=   1.0078250   1.0078250  12.0000000   1.0078250   1.0078250  12.0000000   1.0078250   1.0078250  12.0000000   1.0078250
 NucSpn=           1           1           0           1           1           0           1           1           0           1
 AtZEff=  -0.0000000  -0.0000000  -0.0000000  -0.0000000  -0.0000000  -0.0000000  -0.0000000  -0.0000000  -0.0000000  -0.0000000
 NQMom=    0.0000000   0.0000000   0.0000000   0.0000000   0.0000000   0.0000000   0.0000000   0.0000000   0.0000000   0.0000000
 NMagM=    2.7928460   2.7928460   0.0000000   2.7928460   2.7928460   0.0000000   2.7928460   2.7928460   0.0000000   2.7928460
 AtZNuc=   1.0000000   1.0000000   6.0000000   1.0000000   1.0000000   6.0000000   1.0000000   1.0000000   6.0000000   1.0000000

  Atom        51          52          53          54          55          56          57          58          59          60
 IAtWgt=           1          12           1           1          16          16          16          16          12           1
 AtmWgt=   1.0078250  12.0000000   1.0078250   1.0078250  15.9949146  15.9949146  15.9949146  15.9949146  12.0000000   1.0078250
 NucSpn=           1           0           1           1           0           0           0           0           0           1
 AtZEff=  -0.0000000  -0.0000000  -0.0000000  -0.0000000  -0.0000000  -0.0000000  -0.0000000  -0.0000000  -0.0000000  -0.0000000
 NQMom=    0.0000000   0.0000000   0.0000000   0.0000000   0.0000000   0.0000000   0.0000000   0.0000000   0.0000000   0.0000000
 NMagM=    2.7928460   0.0000000   2.7928460   2.7928460   0.0000000   0.0000000   0.0000000   0.0000000   0.0000000   2.7928460
 AtZNuc=   1.0000000   6.0000000   1.0000000   1.0000000   8.0000000   8.0000000   8.0000000   8.0000000   6.0000000   1.0000000

  Atom        61          62          63          64          65          66          67          68          69          70
 IAtWgt=           1          12           1           1          12           1           1          12           1           1
 AtmWgt=   1.0078250  12.0000000   1.0078250   1.0078250  12.0000000   1.0078250   1.0078250  12.0000000   1.0078250   1.0078250
 NucSpn=           1           0           1           1           0           1           1           0           1           1
 AtZEff=  -0.0000000  -0.0000000  -0.0000000  -0.0000000  -0.0000000  -0.0000000  -0.0000000  -0.0000000  -0.0000000  -0.0000000
 NQMom=    0.0000000   0.0000000   0.0000000   0.0000000   0.0000000   0.0000000   0.0000000   0.0000000   0.0000000   0.0000000
 NMagM=    2.7928460   0.0000000   2.7928460   2.7928460   0.0000000   2.7928460   2.7928460   0.0000000   2.7928460   2.7928460
 AtZNuc=   1.0000000   6.0000000   1.0000000   1.0000000   6.0000000   1.0000000   1.0000000   6.0000000   1.0000000   1.0000000

  Atom        71          72          73          74          75          76          77          78          79          80
 IAtWgt=          12           1           1          12           1           1          12           1           1          12
 AtmWgt=  12.0000000   1.0078250   1.0078250  12.0000000   1.0078250   1.0078250  12.0000000   1.0078250   1.0078250  12.0000000
 NucSpn=           0           1           1           0           1           1           0           1           1           0
 AtZEff=  -0.0000000  -0.0000000  -0.0000000  -0.0000000  -0.0000000  -0.0000000  -0.0000000  -0.0000000  -0.0000000  -0.0000000
 NQMom=    0.0000000   0.0000000   0.0000000   0.0000000   0.0000000   0.0000000   0.0000000   0.0000000   0.0000000   0.0000000
 NMagM=    0.0000000   2.7928460   2.7928460   0.0000000   2.7928460   2.7928460   0.0000000   2.7928460   2.7928460   0.0000000
 AtZNuc=   6.0000000   1.0000000   1.0000000   6.0000000   1.0000000   1.0000000   6.0000000   1.0000000   1.0000000   6.0000000

  Atom        81          82          83          84          85          86          87          88          89          90
 IAtWgt=           1           1          16          16          16          16          12           1           1           1
 AtmWgt=   1.0078250   1.0078250  15.9949146  15.9949146  15.9949146  15.9949146  12.0000000   1.0078250   1.0078250   1.0078250
 NucSpn=           1           1           0           0           0           0           0           1           1           1
 AtZEff=  -0.0000000  -0.0000000  -0.0000000  -0.0000000  -0.0000000  -0.0000000  -0.0000000  -0.0000000  -0.0000000  -0.0000000
 NQMom=    0.0000000   0.0000000   0.0000000   0.0000000   0.0000000   0.0000000   0.0000000   0.0000000   0.0000000   0.0000000
 NMagM=    2.7928460   2.7928460   0.0000000   0.0000000   0.0000000   0.0000000   0.0000000   2.7928460   2.7928460   2.7928460
 AtZNuc=   1.0000000   1.0000000   8.0000000   8.0000000   8.0000000   8.0000000   6.0000000   1.0000000   1.0000000   1.0000000

  Atom        91          92          93          94          95          96          97          98          99         100
 IAtWgt=          12           1           1           1          12           1           1           1          12           1
 AtmWgt=  12.0000000   1.0078250   1.0078250   1.0078250  12.0000000   1.0078250   1.0078250   1.0078250  12.0000000   1.0078250
 NucSpn=           0           1           1           1           0           1           1           1           0           1
 AtZEff=  -0.0000000  -0.0000000  -0.0000000  -0.0000000  -0.0000000  -0.0000000  -0.0000000  -0.0000000  -0.0000000  -0.0000000
 NQMom=    0.0000000   0.0000000   0.0000000   0.0000000   0.0000000   0.0000000   0.0000000   0.0000000   0.0000000   0.0000000
 NMagM=    0.0000000   2.7928460   2.7928460   2.7928460   0.0000000   2.7928460   2.7928460   2.7928460   0.0000000   2.7928460
 AtZNuc=   6.0000000   1.0000000   1.0000000   1.0000000   6.0000000   1.0000000   1.0000000   1.0000000   6.0000000   1.0000000

  Atom       101         102
 IAtWgt=           1           1
 AtmWgt=   1.0078250   1.0078250
 NucSpn=           1           1
 AtZEff=  -0.0000000  -0.0000000
 NQMom=    0.0000000   0.0000000
 NMagM=    2.7928460   2.7928460
 AtZNuc=   1.0000000   1.0000000
 Leave Link  101 at Mon Jan 13 08:24:05 2020, MaxMem=  6710886400 cpu:               4.0 elap:               0.5
 (Enter /apps/gaussian/g16-a03/l103.exe)

 GradGradGradGradGradGradGradGradGradGradGradGradGradGradGradGradGradGrad
 Berny optimization.
 Initialization pass.
                           ----------------------------
                           !    Initial Parameters    !
                           ! (Angstroms and Degrees)  !
 --------------------------                            --------------------------
 ! Name  Definition              Value          Derivative Info.                !
 --------------------------------------------------------------------------------
 ! R1    R(1,2)                  1.3837         estimate D2E/DX2                !
 ! R2    R(1,5)                  1.8364         estimate D2E/DX2                !
 ! R3    R(1,8)                  1.4259         estimate D2E/DX2                !
 ! R4    R(2,3)                  1.4304         estimate D2E/DX2                !
 ! R5    R(2,6)                  1.391          estimate D2E/DX2                !
 ! R6    R(3,4)                  1.3606         estimate D2E/DX2                !
 ! R7    R(3,7)                  1.0784         estimate D2E/DX2                !
 ! R8    R(4,5)                  1.7979         estimate D2E/DX2                !
 ! R9    R(4,21)                 1.0749         estimate D2E/DX2                !
 ! R10   R(6,15)                 1.4583         estimate D2E/DX2                !
 ! R11   R(8,9)                  1.3847         estimate D2E/DX2                !
 ! R12   R(8,12)                 1.8341         estimate D2E/DX2                !
 ! R13   R(9,10)                 1.4193         estimate D2E/DX2                !
 ! R14   R(9,13)                 1.3912         estimate D2E/DX2                !
 ! R15   R(10,11)                1.3759         estimate D2E/DX2                !
 ! R16   R(10,14)                1.0786         estimate D2E/DX2                !
 ! R17   R(11,12)                1.8262         estimate D2E/DX2                !
 ! R18   R(11,25)                1.4284         estimate D2E/DX2                !
 ! R19   R(13,18)                1.4582         estimate D2E/DX2                !
 ! R20   R(15,16)                1.0914         estimate D2E/DX2                !
 ! R21   R(15,17)                1.0914         estimate D2E/DX2                !
 ! R22   R(15,46)                1.5155         estimate D2E/DX2                !
 ! R23   R(18,19)                1.0914         estimate D2E/DX2                !
 ! R24   R(18,20)                1.0914         estimate D2E/DX2                !
 ! R25   R(18,49)                1.5154         estimate D2E/DX2                !
 ! R26   R(22,23)                1.3847         estimate D2E/DX2                !
 ! R27   R(22,26)                1.8341         estimate D2E/DX2                !
 ! R28   R(22,29)                1.4259         estimate D2E/DX2                !
 ! R29   R(23,24)                1.4193         estimate D2E/DX2                !
 ! R30   R(23,27)                1.3912         estimate D2E/DX2                !
 ! R31   R(24,25)                1.3759         estimate D2E/DX2                !
 ! R32   R(24,28)                1.0786         estimate D2E/DX2                !
 ! R33   R(25,26)                1.8262         estimate D2E/DX2                !
 ! R34   R(27,36)                1.4582         estimate D2E/DX2                !
 ! R35   R(29,30)                1.3837         estimate D2E/DX2                !
 ! R36   R(29,33)                1.8364         estimate D2E/DX2                !
 ! R37   R(30,31)                1.4304         estimate D2E/DX2                !
 ! R38   R(30,34)                1.391          estimate D2E/DX2                !
 ! R39   R(31,32)                1.3606         estimate D2E/DX2                !
 ! R40   R(31,35)                1.0784         estimate D2E/DX2                !
 ! R41   R(32,33)                1.7979         estimate D2E/DX2                !
 ! R42   R(32,42)                1.0749         estimate D2E/DX2                !
 ! R43   R(34,39)                1.4583         estimate D2E/DX2                !
 ! R44   R(36,37)                1.0914         estimate D2E/DX2                !
 ! R45   R(36,38)                1.0914         estimate D2E/DX2                !
 ! R46   R(36,43)                1.5154         estimate D2E/DX2                !
 ! R47   R(39,40)                1.0914         estimate D2E/DX2                !
 ! R48   R(39,41)                1.0914         estimate D2E/DX2                !
 ! R49   R(39,52)                1.5155         estimate D2E/DX2                !
 ! R50   R(43,44)                1.0946         estimate D2E/DX2                !
 ! R51   R(43,45)                1.0946         estimate D2E/DX2                !
 ! R52   R(43,56)                1.4498         estimate D2E/DX2                !
 ! R53   R(46,47)                1.0947         estimate D2E/DX2                !
 ! R54   R(46,48)                1.0947         estimate D2E/DX2                !
 ! R55   R(46,55)                1.4492         estimate D2E/DX2                !
 ! R56   R(49,50)                1.0946         estimate D2E/DX2                !
 ! R57   R(49,51)                1.0946         estimate D2E/DX2                !
 ! R58   R(49,57)                1.4498         estimate D2E/DX2                !
 ! R59   R(52,53)                1.0947         estimate D2E/DX2                !
 ! R60   R(52,54)                1.0947         estimate D2E/DX2                !
 ! R61   R(52,58)                1.4492         estimate D2E/DX2                !
 ! R62   R(55,59)                1.4494         estimate D2E/DX2                !
 ! R63   R(56,62)                1.449          estimate D2E/DX2                !
 ! R64   R(57,68)                1.449          estimate D2E/DX2                !
 ! R65   R(58,65)                1.4494         estimate D2E/DX2                !
 ! R66   R(59,60)                1.095          estimate D2E/DX2                !
 ! R67   R(59,61)                1.095          estimate D2E/DX2                !
 ! R68   R(59,71)                1.54           estimate D2E/DX2                !
 ! R69   R(62,63)                1.0951         estimate D2E/DX2                !
 ! R70   R(62,64)                1.0951         estimate D2E/DX2                !
 ! R71   R(62,74)                1.54           estimate D2E/DX2                !
 ! R72   R(65,66)                1.095          estimate D2E/DX2                !
 ! R73   R(65,67)                1.095          estimate D2E/DX2                !
 ! R74   R(65,77)                1.54           estimate D2E/DX2                !
 ! R75   R(68,69)                1.0951         estimate D2E/DX2                !
 ! R76   R(68,70)                1.0951         estimate D2E/DX2                !
 ! R77   R(68,80)                1.54           estimate D2E/DX2                !
 ! R78   R(71,72)                1.07           estimate D2E/DX2                !
 ! R79   R(71,73)                1.07           estimate D2E/DX2                !
 ! R80   R(71,83)                1.43           estimate D2E/DX2                !
 ! R81   R(74,75)                1.07           estimate D2E/DX2                !
 ! R82   R(74,76)                1.07           estimate D2E/DX2                !
 ! R83   R(74,84)                1.43           estimate D2E/DX2                !
 ! R84   R(77,78)                1.07           estimate D2E/DX2                !
 ! R85   R(77,79)                1.07           estimate D2E/DX2                !
 ! R86   R(77,85)                1.43           estimate D2E/DX2                !
 ! R87   R(80,81)                1.07           estimate D2E/DX2                !
 ! R88   R(80,82)                1.07           estimate D2E/DX2                !
 ! R89   R(80,86)                1.43           estimate D2E/DX2                !
 ! R90   R(83,87)                1.43           estimate D2E/DX2                !
 ! R91   R(84,91)                1.43           estimate D2E/DX2                !
 ! R92   R(85,95)                1.43           estimate D2E/DX2                !
 ! R93   R(86,99)                1.43           estimate D2E/DX2                !
 ! R94   R(87,88)                1.07           estimate D2E/DX2                !
 ! R95   R(87,89)                1.07           estimate D2E/DX2                !
 ! R96   R(87,90)                1.07           estimate D2E/DX2                !
 ! R97   R(91,92)                1.07           estimate D2E/DX2                !
 ! R98   R(91,93)                1.07           estimate D2E/DX2                !
 ! R99   R(91,94)                1.07           estimate D2E/DX2                !
 ! R100  R(95,96)                1.07           estimate D2E/DX2                !
 ! R101  R(95,97)                1.07           estimate D2E/DX2                !
 ! R102  R(95,98)                1.07           estimate D2E/DX2                !
 ! R103  R(99,100)               1.07           estimate D2E/DX2                !
 ! R104  R(99,101)               1.07           estimate D2E/DX2                !
 ! R105  R(99,102)               1.07           estimate D2E/DX2                !
 ! A1    A(2,1,5)              108.8554         estimate D2E/DX2                !
 ! A2    A(2,1,8)              129.1221         estimate D2E/DX2                !
 ! A3    A(5,1,8)              122.0224         estimate D2E/DX2                !
 ! A4    A(1,2,3)              115.6545         estimate D2E/DX2                !
 ! A5    A(1,2,6)              119.0203         estimate D2E/DX2                !
 ! A6    A(3,2,6)              125.3252         estimate D2E/DX2                !
 ! A7    A(2,3,4)              113.2797         estimate D2E/DX2                !
 ! A8    A(2,3,7)              123.6804         estimate D2E/DX2                !
 ! A9    A(4,3,7)              123.04           estimate D2E/DX2                !
 ! A10   A(3,4,5)              112.3334         estimate D2E/DX2                !
 ! A11   A(3,4,21)             128.5909         estimate D2E/DX2                !
 ! A12   A(5,4,21)             119.0757         estimate D2E/DX2                !
 ! A13   A(1,5,4)               89.8771         estimate D2E/DX2                !
 ! A14   A(2,6,15)             119.1943         estimate D2E/DX2                !
 ! A15   A(1,8,9)              129.3848         estimate D2E/DX2                !
 ! A16   A(1,8,12)             121.7622         estimate D2E/DX2                !
 ! A17   A(9,8,12)             108.853          estimate D2E/DX2                !
 ! A18   A(8,9,10)             116.065          estimate D2E/DX2                !
 ! A19   A(8,9,13)             118.791          estimate D2E/DX2                !
 ! A20   A(10,9,13)            125.144          estimate D2E/DX2                !
 ! A21   A(9,10,11)            114.3776         estimate D2E/DX2                !
 ! A22   A(9,10,14)            123.3291         estimate D2E/DX2                !
 ! A23   A(11,10,14)           122.2933         estimate D2E/DX2                !
 ! A24   A(10,11,12)           110.3745         estimate D2E/DX2                !
 ! A25   A(10,11,25)           129.3928         estimate D2E/DX2                !
 ! A26   A(12,11,25)           120.2327         estimate D2E/DX2                !
 ! A27   A(8,12,11)             90.3299         estimate D2E/DX2                !
 ! A28   A(9,13,18)            119.0805         estimate D2E/DX2                !
 ! A29   A(6,15,16)            110.3985         estimate D2E/DX2                !
 ! A30   A(6,15,17)            110.3985         estimate D2E/DX2                !
 ! A31   A(6,15,46)            106.1473         estimate D2E/DX2                !
 ! A32   A(16,15,17)           109.4525         estimate D2E/DX2                !
 ! A33   A(16,15,46)           110.2025         estimate D2E/DX2                !
 ! A34   A(17,15,46)           110.2024         estimate D2E/DX2                !
 ! A35   A(13,18,19)           110.3908         estimate D2E/DX2                !
 ! A36   A(13,18,20)           110.3906         estimate D2E/DX2                !
 ! A37   A(13,18,49)           106.1446         estimate D2E/DX2                !
 ! A38   A(19,18,20)           109.4299         estimate D2E/DX2                !
 ! A39   A(19,18,49)           110.2231         estimate D2E/DX2                !
 ! A40   A(20,18,49)           110.2238         estimate D2E/DX2                !
 ! A41   A(23,22,26)           108.853          estimate D2E/DX2                !
 ! A42   A(23,22,29)           129.3849         estimate D2E/DX2                !
 ! A43   A(26,22,29)           121.7621         estimate D2E/DX2                !
 ! A44   A(22,23,24)           116.065          estimate D2E/DX2                !
 ! A45   A(22,23,27)           118.791          estimate D2E/DX2                !
 ! A46   A(24,23,27)           125.1441         estimate D2E/DX2                !
 ! A47   A(23,24,25)           114.3775         estimate D2E/DX2                !
 ! A48   A(23,24,28)           123.3291         estimate D2E/DX2                !
 ! A49   A(25,24,28)           122.2934         estimate D2E/DX2                !
 ! A50   A(11,25,24)           129.3928         estimate D2E/DX2                !
 ! A51   A(11,25,26)           120.2327         estimate D2E/DX2                !
 ! A52   A(24,25,26)           110.3745         estimate D2E/DX2                !
 ! A53   A(22,26,25)            90.33           estimate D2E/DX2                !
 ! A54   A(23,27,36)           119.0805         estimate D2E/DX2                !
 ! A55   A(22,29,30)           129.1222         estimate D2E/DX2                !
 ! A56   A(22,29,33)           122.0224         estimate D2E/DX2                !
 ! A57   A(30,29,33)           108.8554         estimate D2E/DX2                !
 ! A58   A(29,30,31)           115.6545         estimate D2E/DX2                !
 ! A59   A(29,30,34)           119.0203         estimate D2E/DX2                !
 ! A60   A(31,30,34)           125.3252         estimate D2E/DX2                !
 ! A61   A(30,31,32)           113.2797         estimate D2E/DX2                !
 ! A62   A(30,31,35)           123.6805         estimate D2E/DX2                !
 ! A63   A(32,31,35)           123.0399         estimate D2E/DX2                !
 ! A64   A(31,32,33)           112.3334         estimate D2E/DX2                !
 ! A65   A(31,32,42)           128.5909         estimate D2E/DX2                !
 ! A66   A(33,32,42)           119.0757         estimate D2E/DX2                !
 ! A67   A(29,33,32)            89.8771         estimate D2E/DX2                !
 ! A68   A(30,34,39)           119.1943         estimate D2E/DX2                !
 ! A69   A(27,36,37)           110.3907         estimate D2E/DX2                !
 ! A70   A(27,36,38)           110.3907         estimate D2E/DX2                !
 ! A71   A(27,36,43)           106.1446         estimate D2E/DX2                !
 ! A72   A(37,36,38)           109.43           estimate D2E/DX2                !
 ! A73   A(37,36,43)           110.224          estimate D2E/DX2                !
 ! A74   A(38,36,43)           110.223          estimate D2E/DX2                !
 ! A75   A(34,39,40)           110.3965         estimate D2E/DX2                !
 ! A76   A(34,39,41)           110.4005         estimate D2E/DX2                !
 ! A77   A(34,39,52)           106.1473         estimate D2E/DX2                !
 ! A78   A(40,39,41)           109.4524         estimate D2E/DX2                !
 ! A79   A(40,39,52)           110.2099         estimate D2E/DX2                !
 ! A80   A(41,39,52)           110.1952         estimate D2E/DX2                !
 ! A81   A(36,43,44)           110.2183         estimate D2E/DX2                !
 ! A82   A(36,43,45)           110.2178         estimate D2E/DX2                !
 ! A83   A(36,43,56)           105.842          estimate D2E/DX2                !
 ! A84   A(44,43,45)           108.6915         estimate D2E/DX2                !
 ! A85   A(44,43,56)           110.9296         estimate D2E/DX2                !
 ! A86   A(45,43,56)           110.9297         estimate D2E/DX2                !
 ! A87   A(15,46,47)           110.2025         estimate D2E/DX2                !
 ! A88   A(15,46,48)           110.2024         estimate D2E/DX2                !
 ! A89   A(15,46,55)           105.8195         estimate D2E/DX2                !
 ! A90   A(47,46,48)           108.6979         estimate D2E/DX2                !
 ! A91   A(47,46,55)           110.9528         estimate D2E/DX2                !
 ! A92   A(48,46,55)           110.9527         estimate D2E/DX2                !
 ! A93   A(18,49,50)           110.2183         estimate D2E/DX2                !
 ! A94   A(18,49,51)           110.2178         estimate D2E/DX2                !
 ! A95   A(18,49,57)           105.842          estimate D2E/DX2                !
 ! A96   A(50,49,51)           108.6915         estimate D2E/DX2                !
 ! A97   A(50,49,57)           110.9296         estimate D2E/DX2                !
 ! A98   A(51,49,57)           110.9297         estimate D2E/DX2                !
 ! A99   A(39,52,53)           110.1969         estimate D2E/DX2                !
 ! A100  A(39,52,54)           110.208          estimate D2E/DX2                !
 ! A101  A(39,52,58)           105.8195         estimate D2E/DX2                !
 ! A102  A(53,52,54)           108.6979         estimate D2E/DX2                !
 ! A103  A(53,52,58)           110.9547         estimate D2E/DX2                !
 ! A104  A(54,52,58)           110.9509         estimate D2E/DX2                !
 ! A105  A(46,55,59)           113.9035         estimate D2E/DX2                !
 ! A106  A(43,56,62)           113.8778         estimate D2E/DX2                !
 ! A107  A(49,57,68)           113.8778         estimate D2E/DX2                !
 ! A108  A(52,58,65)           113.9035         estimate D2E/DX2                !
 ! A109  A(55,59,60)           111.2251         estimate D2E/DX2                !
 ! A110  A(55,59,61)           111.2251         estimate D2E/DX2                !
 ! A111  A(55,59,71)           106.2581         estimate D2E/DX2                !
 ! A112  A(60,59,61)           109.1289         estimate D2E/DX2                !
 ! A113  A(60,59,71)           109.4751         estimate D2E/DX2                !
 ! A114  A(61,59,71)           109.4751         estimate D2E/DX2                !
 ! A115  A(56,62,63)           111.2319         estimate D2E/DX2                !
 ! A116  A(56,62,64)           111.232          estimate D2E/DX2                !
 ! A117  A(56,62,74)           106.2897         estimate D2E/DX2                !
 ! A118  A(63,62,64)           109.1302         estimate D2E/DX2                !
 ! A119  A(63,62,74)           109.4513         estimate D2E/DX2                !
 ! A120  A(64,62,74)           109.4514         estimate D2E/DX2                !
 ! A121  A(58,65,66)           111.2245         estimate D2E/DX2                !
 ! A122  A(58,65,67)           111.2255         estimate D2E/DX2                !
 ! A123  A(58,65,77)           106.258          estimate D2E/DX2                !
 ! A124  A(66,65,67)           109.1289         estimate D2E/DX2                !
 ! A125  A(66,65,77)           109.4756         estimate D2E/DX2                !
 ! A126  A(67,65,77)           109.4748         estimate D2E/DX2                !
 ! A127  A(57,68,69)           111.232          estimate D2E/DX2                !
 ! A128  A(57,68,70)           111.232          estimate D2E/DX2                !
 ! A129  A(57,68,80)           106.2897         estimate D2E/DX2                !
 ! A130  A(69,68,70)           109.1302         estimate D2E/DX2                !
 ! A131  A(69,68,80)           109.4513         estimate D2E/DX2                !
 ! A132  A(70,68,80)           109.4514         estimate D2E/DX2                !
 ! A133  A(59,71,72)           109.4712         estimate D2E/DX2                !
 ! A134  A(59,71,73)           109.4712         estimate D2E/DX2                !
 ! A135  A(59,71,83)           109.4712         estimate D2E/DX2                !
 ! A136  A(72,71,73)           109.4712         estimate D2E/DX2                !
 ! A137  A(72,71,83)           109.4713         estimate D2E/DX2                !
 ! A138  A(73,71,83)           109.4712         estimate D2E/DX2                !
 ! A139  A(62,74,75)           109.4712         estimate D2E/DX2                !
 ! A140  A(62,74,76)           109.4712         estimate D2E/DX2                !
 ! A141  A(62,74,84)           109.4712         estimate D2E/DX2                !
 ! A142  A(75,74,76)           109.4713         estimate D2E/DX2                !
 ! A143  A(75,74,84)           109.4712         estimate D2E/DX2                !
 ! A144  A(76,74,84)           109.4712         estimate D2E/DX2                !
 ! A145  A(65,77,78)           109.4712         estimate D2E/DX2                !
 ! A146  A(65,77,79)           109.4712         estimate D2E/DX2                !
 ! A147  A(65,77,85)           109.4712         estimate D2E/DX2                !
 ! A148  A(78,77,79)           109.4712         estimate D2E/DX2                !
 ! A149  A(78,77,85)           109.4713         estimate D2E/DX2                !
 ! A150  A(79,77,85)           109.4712         estimate D2E/DX2                !
 ! A151  A(68,80,81)           109.4712         estimate D2E/DX2                !
 ! A152  A(68,80,82)           109.4712         estimate D2E/DX2                !
 ! A153  A(68,80,86)           109.4712         estimate D2E/DX2                !
 ! A154  A(81,80,82)           109.4713         estimate D2E/DX2                !
 ! A155  A(81,80,86)           109.4712         estimate D2E/DX2                !
 ! A156  A(82,80,86)           109.4712         estimate D2E/DX2                !
 ! A157  A(71,83,87)           109.5            estimate D2E/DX2                !
 ! A158  A(74,84,91)           109.5            estimate D2E/DX2                !
 ! A159  A(77,85,95)           109.5            estimate D2E/DX2                !
 ! A160  A(80,86,99)           109.5            estimate D2E/DX2                !
 ! A161  A(83,87,88)           109.4712         estimate D2E/DX2                !
 ! A162  A(83,87,89)           109.4712         estimate D2E/DX2                !
 ! A163  A(83,87,90)           109.4712         estimate D2E/DX2                !
 ! A164  A(88,87,89)           109.4713         estimate D2E/DX2                !
 ! A165  A(88,87,90)           109.4712         estimate D2E/DX2                !
 ! A166  A(89,87,90)           109.4712         estimate D2E/DX2                !
 ! A167  A(84,91,92)           109.4712         estimate D2E/DX2                !
 ! A168  A(84,91,93)           109.4712         estimate D2E/DX2                !
 ! A169  A(84,91,94)           109.4712         estimate D2E/DX2                !
 ! A170  A(92,91,93)           109.4713         estimate D2E/DX2                !
 ! A171  A(92,91,94)           109.4712         estimate D2E/DX2                !
 ! A172  A(93,91,94)           109.4712         estimate D2E/DX2                !
 ! A173  A(85,95,96)           109.4712         estimate D2E/DX2                !
 ! A174  A(85,95,97)           109.4712         estimate D2E/DX2                !
 ! A175  A(85,95,98)           109.4712         estimate D2E/DX2                !
 ! A176  A(96,95,97)           109.4713         estimate D2E/DX2                !
 ! A177  A(96,95,98)           109.4712         estimate D2E/DX2                !
 ! A178  A(97,95,98)           109.4712         estimate D2E/DX2                !
 ! A179  A(86,99,100)          109.4712         estimate D2E/DX2                !
 ! A180  A(86,99,101)          109.4712         estimate D2E/DX2                !
 ! A181  A(86,99,102)          109.4712         estimate D2E/DX2                !
 ! A182  A(100,99,101)         109.4713         estimate D2E/DX2                !
 ! A183  A(100,99,102)         109.4712         estimate D2E/DX2                !
 ! A184  A(101,99,102)         109.4712         estimate D2E/DX2                !
 ! D1    D(5,1,2,3)             -0.0001         estimate D2E/DX2                !
 ! D2    D(5,1,2,6)           -179.9996         estimate D2E/DX2                !
 ! D3    D(8,1,2,3)            179.9999         estimate D2E/DX2                !
 ! D4    D(8,1,2,6)              0.0004         estimate D2E/DX2                !
 ! D5    D(2,1,5,4)              0.0            estimate D2E/DX2                !
 ! D6    D(8,1,5,4)           -179.9999         estimate D2E/DX2                !
 ! D7    D(2,1,8,9)            179.9995         estimate D2E/DX2                !
 ! D8    D(2,1,8,12)            -0.0003         estimate D2E/DX2                !
 ! D9    D(5,1,8,9)             -0.0005         estimate D2E/DX2                !
 ! D10   D(5,1,8,12)           179.9997         estimate D2E/DX2                !
 ! D11   D(1,2,3,4)              0.0001         estimate D2E/DX2                !
 ! D12   D(1,2,3,7)           -179.9999         estimate D2E/DX2                !
 ! D13   D(6,2,3,4)            179.9996         estimate D2E/DX2                !
 ! D14   D(6,2,3,7)             -0.0004         estimate D2E/DX2                !
 ! D15   D(1,2,6,15)          -179.9951         estimate D2E/DX2                !
 ! D16   D(3,2,6,15)             0.0054         estimate D2E/DX2                !
 ! D17   D(2,3,4,5)              0.0            estimate D2E/DX2                !
 ! D18   D(2,3,4,21)           179.9999         estimate D2E/DX2                !
 ! D19   D(7,3,4,5)            180.0            estimate D2E/DX2                !
 ! D20   D(7,3,4,21)            -0.0001         estimate D2E/DX2                !
 ! D21   D(3,4,5,1)              0.0            estimate D2E/DX2                !
 ! D22   D(21,4,5,1)          -180.0            estimate D2E/DX2                !
 ! D23   D(2,6,15,16)           60.5747         estimate D2E/DX2                !
 ! D24   D(2,6,15,17)          -60.5808         estimate D2E/DX2                !
 ! D25   D(2,6,15,46)          179.9971         estimate D2E/DX2                !
 ! D26   D(1,8,9,10)          -179.9995         estimate D2E/DX2                !
 ! D27   D(1,8,9,13)            -0.0003         estimate D2E/DX2                !
 ! D28   D(12,8,9,10)            0.0003         estimate D2E/DX2                !
 ! D29   D(12,8,9,13)          179.9995         estimate D2E/DX2                !
 ! D30   D(1,8,12,11)          179.9996         estimate D2E/DX2                !
 ! D31   D(9,8,12,11)           -0.0002         estimate D2E/DX2                !
 ! D32   D(8,9,10,11)           -0.0003         estimate D2E/DX2                !
 ! D33   D(8,9,10,14)          179.999          estimate D2E/DX2                !
 ! D34   D(13,9,10,11)        -179.9995         estimate D2E/DX2                !
 ! D35   D(13,9,10,14)          -0.0001         estimate D2E/DX2                !
 ! D36   D(8,9,13,18)          179.9964         estimate D2E/DX2                !
 ! D37   D(10,9,13,18)          -0.0045         estimate D2E/DX2                !
 ! D38   D(9,10,11,12)           0.0002         estimate D2E/DX2                !
 ! D39   D(9,10,11,25)         179.9996         estimate D2E/DX2                !
 ! D40   D(14,10,11,12)       -179.9992         estimate D2E/DX2                !
 ! D41   D(14,10,11,25)          0.0002         estimate D2E/DX2                !
 ! D42   D(10,11,12,8)           0.0            estimate D2E/DX2                !
 ! D43   D(25,11,12,8)        -179.9995         estimate D2E/DX2                !
 ! D44   D(10,11,25,24)       -179.994          estimate D2E/DX2                !
 ! D45   D(10,11,25,26)          0.0012         estimate D2E/DX2                !
 ! D46   D(12,11,25,24)          0.0054         estimate D2E/DX2                !
 ! D47   D(12,11,25,26)       -179.9993         estimate D2E/DX2                !
 ! D48   D(9,13,18,19)         -60.5562         estimate D2E/DX2                !
 ! D49   D(9,13,18,20)          60.5608         estimate D2E/DX2                !
 ! D50   D(9,13,18,49)        -179.9973         estimate D2E/DX2                !
 ! D51   D(6,15,46,47)         -59.9806         estimate D2E/DX2                !
 ! D52   D(6,15,46,48)          59.9793         estimate D2E/DX2                !
 ! D53   D(6,15,46,55)         179.9993         estimate D2E/DX2                !
 ! D54   D(16,15,46,47)         59.5699         estimate D2E/DX2                !
 ! D55   D(16,15,46,48)        179.5299         estimate D2E/DX2                !
 ! D56   D(16,15,46,55)        -60.4501         estimate D2E/DX2                !
 ! D57   D(17,15,46,47)       -179.531          estimate D2E/DX2                !
 ! D58   D(17,15,46,48)        -59.5711         estimate D2E/DX2                !
 ! D59   D(17,15,46,55)         60.4489         estimate D2E/DX2                !
 ! D60   D(13,18,49,50)        -59.9892         estimate D2E/DX2                !
 ! D61   D(13,18,49,51)         59.9826         estimate D2E/DX2                !
 ! D62   D(13,18,49,57)        179.9967         estimate D2E/DX2                !
 ! D63   D(19,18,49,50)       -179.5401         estimate D2E/DX2                !
 ! D64   D(19,18,49,51)        -59.5683         estimate D2E/DX2                !
 ! D65   D(19,18,49,57)         60.4458         estimate D2E/DX2                !
 ! D66   D(20,18,49,50)         59.5618         estimate D2E/DX2                !
 ! D67   D(20,18,49,51)        179.5336         estimate D2E/DX2                !
 ! D68   D(20,18,49,57)        -60.4523         estimate D2E/DX2                !
 ! D69   D(26,22,23,24)         -0.008          estimate D2E/DX2                !
 ! D70   D(26,22,23,27)        179.9964         estimate D2E/DX2                !
 ! D71   D(29,22,23,24)        179.9938         estimate D2E/DX2                !
 ! D72   D(29,22,23,27)         -0.0018         estimate D2E/DX2                !
 ! D73   D(23,22,26,25)          0.0109         estimate D2E/DX2                !
 ! D74   D(29,22,26,25)       -179.9907         estimate D2E/DX2                !
 ! D75   D(23,22,29,30)        179.998          estimate D2E/DX2                !
 ! D76   D(23,22,29,33)         -0.0012         estimate D2E/DX2                !
 ! D77   D(26,22,29,30)          0.0            estimate D2E/DX2                !
 ! D78   D(26,22,29,33)       -179.9992         estimate D2E/DX2                !
 ! D79   D(22,23,24,25)         -0.0009         estimate D2E/DX2                !
 ! D80   D(22,23,24,28)       -179.9956         estimate D2E/DX2                !
 ! D81   D(27,23,24,25)        179.9943         estimate D2E/DX2                !
 ! D82   D(27,23,24,28)         -0.0004         estimate D2E/DX2                !
 ! D83   D(22,23,27,36)       -179.9905         estimate D2E/DX2                !
 ! D84   D(24,23,27,36)          0.0144         estimate D2E/DX2                !
 ! D85   D(23,24,25,11)       -179.9949         estimate D2E/DX2                !
 ! D86   D(23,24,25,26)          0.0095         estimate D2E/DX2                !
 ! D87   D(28,24,25,11)         -0.0001         estimate D2E/DX2                !
 ! D88   D(28,24,25,26)       -179.9957         estimate D2E/DX2                !
 ! D89   D(11,25,26,22)        179.9923         estimate D2E/DX2                !
 ! D90   D(24,25,26,22)         -0.0116         estimate D2E/DX2                !
 ! D91   D(23,27,36,37)         60.5527         estimate D2E/DX2                !
 ! D92   D(23,27,36,38)        -60.5642         estimate D2E/DX2                !
 ! D93   D(23,27,36,43)        179.9949         estimate D2E/DX2                !
 ! D94   D(22,29,30,31)        179.999          estimate D2E/DX2                !
 ! D95   D(22,29,30,34)         -0.0058         estimate D2E/DX2                !
 ! D96   D(33,29,30,31)         -0.0017         estimate D2E/DX2                !
 ! D97   D(33,29,30,34)        179.9935         estimate D2E/DX2                !
 ! D98   D(22,29,33,32)       -179.9975         estimate D2E/DX2                !
 ! D99   D(30,29,33,32)          0.0031         estimate D2E/DX2                !
 ! D100  D(29,30,31,32)         -0.0013         estimate D2E/DX2                !
 ! D101  D(29,30,31,35)        179.9985         estimate D2E/DX2                !
 ! D102  D(34,30,31,32)       -179.9962         estimate D2E/DX2                !
 ! D103  D(34,30,31,35)          0.0036         estimate D2E/DX2                !
 ! D104  D(29,30,34,39)        179.9392         estimate D2E/DX2                !
 ! D105  D(31,30,34,39)         -0.0661         estimate D2E/DX2                !
 ! D106  D(30,31,32,33)          0.0038         estimate D2E/DX2                !
 ! D107  D(30,31,32,42)       -179.9995         estimate D2E/DX2                !
 ! D108  D(35,31,32,33)       -179.996          estimate D2E/DX2                !
 ! D109  D(35,31,32,42)          0.0007         estimate D2E/DX2                !
 ! D110  D(31,32,33,29)         -0.004          estimate D2E/DX2                !
 ! D111  D(42,32,33,29)        179.999          estimate D2E/DX2                !
 ! D112  D(30,34,39,40)        -60.5396         estimate D2E/DX2                !
 ! D113  D(30,34,39,41)         60.6158         estimate D2E/DX2                !
 ! D114  D(30,34,39,52)       -179.9695         estimate D2E/DX2                !
 ! D115  D(27,36,43,44)        -59.9896         estimate D2E/DX2                !
 ! D116  D(27,36,43,45)         59.9822         estimate D2E/DX2                !
 ! D117  D(27,36,43,56)        179.9962         estimate D2E/DX2                !
 ! D118  D(37,36,43,44)         59.5616         estimate D2E/DX2                !
 ! D119  D(37,36,43,45)        179.5334         estimate D2E/DX2                !
 ! D120  D(37,36,43,56)        -60.4526         estimate D2E/DX2                !
 ! D121  D(38,36,43,44)       -179.5402         estimate D2E/DX2                !
 ! D122  D(38,36,43,45)        -59.5684         estimate D2E/DX2                !
 ! D123  D(38,36,43,56)         60.4456         estimate D2E/DX2                !
 ! D124  D(34,39,52,53)        -59.9259         estimate D2E/DX2                !
 ! D125  D(34,39,52,54)         60.0341         estimate D2E/DX2                !
 ! D126  D(34,39,52,58)       -179.9452         estimate D2E/DX2                !
 ! D127  D(40,39,52,53)       -179.4779         estimate D2E/DX2                !
 ! D128  D(40,39,52,54)        -59.518          estimate D2E/DX2                !
 ! D129  D(40,39,52,58)         60.5028         estimate D2E/DX2                !
 ! D130  D(41,39,52,53)         59.6231         estimate D2E/DX2                !
 ! D131  D(41,39,52,54)        179.583          estimate D2E/DX2                !
 ! D132  D(41,39,52,58)        -60.3962         estimate D2E/DX2                !
 ! D133  D(36,43,56,62)        179.9992         estimate D2E/DX2                !
 ! D134  D(44,43,56,62)         60.4516         estimate D2E/DX2                !
 ! D135  D(45,43,56,62)        -60.4537         estimate D2E/DX2                !
 ! D136  D(15,46,55,59)        179.9992         estimate D2E/DX2                !
 ! D137  D(47,46,55,59)         60.4714         estimate D2E/DX2                !
 ! D138  D(48,46,55,59)        -60.4732         estimate D2E/DX2                !
 ! D139  D(18,49,57,68)        179.9959         estimate D2E/DX2                !
 ! D140  D(50,49,57,68)         60.4483         estimate D2E/DX2                !
 ! D141  D(51,49,57,68)        -60.457          estimate D2E/DX2                !
 ! D142  D(39,52,58,65)        179.9846         estimate D2E/DX2                !
 ! D143  D(53,52,58,65)         60.4626         estimate D2E/DX2                !
 ! D144  D(54,52,58,65)        -60.4821         estimate D2E/DX2                !
 ! D145  D(46,55,59,60)        -60.9337         estimate D2E/DX2                !
 ! D146  D(46,55,59,61)         60.934          estimate D2E/DX2                !
 ! D147  D(46,55,59,71)       -179.9999         estimate D2E/DX2                !
 ! D148  D(43,56,62,63)        -60.9388         estimate D2E/DX2                !
 ! D149  D(43,56,62,64)         60.9403         estimate D2E/DX2                !
 ! D150  D(43,56,62,74)       -179.9992         estimate D2E/DX2                !
 ! D151  D(49,57,68,69)         60.9406         estimate D2E/DX2                !
 ! D152  D(49,57,68,70)        -60.9385         estimate D2E/DX2                !
 ! D153  D(49,57,68,80)       -179.999          estimate D2E/DX2                !
 ! D154  D(52,58,65,66)        -60.9316         estimate D2E/DX2                !
 ! D155  D(52,58,65,67)         60.9361         estimate D2E/DX2                !
 ! D156  D(52,58,65,77)       -179.998          estimate D2E/DX2                !
 ! D157  D(55,59,71,72)         60.0005         estimate D2E/DX2                !
 ! D158  D(55,59,71,73)        -59.9995         estimate D2E/DX2                !
 ! D159  D(55,59,71,83)       -179.9995         estimate D2E/DX2                !
 ! D160  D(60,59,71,72)        -60.2066         estimate D2E/DX2                !
 ! D161  D(60,59,71,73)        179.7934         estimate D2E/DX2                !
 ! D162  D(60,59,71,83)         59.7934         estimate D2E/DX2                !
 ! D163  D(61,59,71,72)       -179.7925         estimate D2E/DX2                !
 ! D164  D(61,59,71,73)         60.2075         estimate D2E/DX2                !
 ! D165  D(61,59,71,83)        -59.7925         estimate D2E/DX2                !
 ! D166  D(56,62,74,75)        -60.0035         estimate D2E/DX2                !
 ! D167  D(56,62,74,76)         59.9965         estimate D2E/DX2                !
 ! D168  D(56,62,74,84)        179.9965         estimate D2E/DX2                !
 ! D169  D(63,62,74,75)        179.7758         estimate D2E/DX2                !
 ! D170  D(63,62,74,76)        -60.2241         estimate D2E/DX2                !
 ! D171  D(63,62,74,84)         59.7759         estimate D2E/DX2                !
 ! D172  D(64,62,74,75)         60.2172         estimate D2E/DX2                !
 ! D173  D(64,62,74,76)       -179.7828         estimate D2E/DX2                !
 ! D174  D(64,62,74,84)        -59.7828         estimate D2E/DX2                !
 ! D175  D(58,65,77,78)         60.0045         estimate D2E/DX2                !
 ! D176  D(58,65,77,79)        -59.9955         estimate D2E/DX2                !
 ! D177  D(58,65,77,85)       -179.9955         estimate D2E/DX2                !
 ! D178  D(66,65,77,78)        -60.2021         estimate D2E/DX2                !
 ! D179  D(66,65,77,79)        179.7979         estimate D2E/DX2                !
 ! D180  D(66,65,77,85)         59.7979         estimate D2E/DX2                !
 ! D181  D(67,65,77,78)       -179.7882         estimate D2E/DX2                !
 ! D182  D(67,65,77,79)         60.2118         estimate D2E/DX2                !
 ! D183  D(67,65,77,85)        -59.7882         estimate D2E/DX2                !
 ! D184  D(57,68,80,81)        -60.001          estimate D2E/DX2                !
 ! D185  D(57,68,80,82)         59.999          estimate D2E/DX2                !
 ! D186  D(57,68,80,86)        179.999          estimate D2E/DX2                !
 ! D187  D(69,68,80,81)         60.2197         estimate D2E/DX2                !
 ! D188  D(69,68,80,82)       -179.7803         estimate D2E/DX2                !
 ! D189  D(69,68,80,86)        -59.7803         estimate D2E/DX2                !
 ! D190  D(70,68,80,81)        179.7783         estimate D2E/DX2                !
 ! D191  D(70,68,80,82)        -60.2217         estimate D2E/DX2                !
 ! D192  D(70,68,80,86)         59.7783         estimate D2E/DX2                !
 ! D193  D(59,71,83,87)        179.999          estimate D2E/DX2                !
 ! D194  D(72,71,83,87)        -60.001          estimate D2E/DX2                !
 ! D195  D(73,71,83,87)         59.999          estimate D2E/DX2                !
 ! D196  D(62,74,84,91)       -179.9961         estimate D2E/DX2                !
 ! D197  D(75,74,84,91)         60.0039         estimate D2E/DX2                !
 ! D198  D(76,74,84,91)        -59.9961         estimate D2E/DX2                !
 ! D199  D(65,77,85,95)        179.9952         estimate D2E/DX2                !
 ! D200  D(78,77,85,95)        -60.0048         estimate D2E/DX2                !
 ! D201  D(79,77,85,95)         59.9952         estimate D2E/DX2                !
 ! D202  D(68,80,86,99)       -179.9988         estimate D2E/DX2                !
 ! D203  D(81,80,86,99)         60.0012         estimate D2E/DX2                !
 ! D204  D(82,80,86,99)        -59.9988         estimate D2E/DX2                !
 ! D205  D(71,83,87,88)         59.8932         estimate D2E/DX2                !
 ! D206  D(71,83,87,89)        179.8932         estimate D2E/DX2                !
 ! D207  D(71,83,87,90)        -60.1068         estimate D2E/DX2                !
 ! D208  D(74,84,91,92)        179.8821         estimate D2E/DX2                !
 ! D209  D(74,84,91,93)        -60.1179         estimate D2E/DX2                !
 ! D210  D(74,84,91,94)         59.8821         estimate D2E/DX2                !
 ! D211  D(77,85,95,96)         59.9987         estimate D2E/DX2                !
 ! D212  D(77,85,95,97)        179.9987         estimate D2E/DX2                !
 ! D213  D(77,85,95,98)        -60.0013         estimate D2E/DX2                !
 ! D214  D(80,86,99,100)        59.9986         estimate D2E/DX2                !
 ! D215  D(80,86,99,101)       179.9986         estimate D2E/DX2                !
 ! D216  D(80,86,99,102)       -60.0014         estimate D2E/DX2                !
 --------------------------------------------------------------------------------
 Trust Radius=3.00D-01 FncErr=1.00D-07 GrdErr=1.00D-06 EigMax=2.50D+02 EigMin=1.00D-04
 Number of steps in this run=    515 maximum allowed number of steps=    612.
 GradGradGradGradGradGradGradGradGradGradGradGradGradGradGradGradGradGrad

 Leave Link  103 at Mon Jan 13 08:24:06 2020, MaxMem=  6710886400 cpu:               0.2 elap:               0.0
 (Enter /apps/gaussian/g16-a03/l202.exe)
 Stoichiometry    C36H50O12S4
 Framework group  C1[X(C36H50O12S4)]
 Deg. of freedom   300
 Full point group                 C1      NOp   1
 Largest Abelian subgroup         C1      NOp   1
 Largest concise Abelian subgroup C1      NOp   1
                         Standard orientation:                         
 ---------------------------------------------------------------------
 Center     Atomic      Atomic             Coordinates (Angstroms)
 Number     Number       Type             X           Y           Z
 ---------------------------------------------------------------------
      1          6           0        0.489504   -4.649219    0.000114
      2          6           0        1.777518   -5.154933    0.000293
      3          6           0        1.882724   -6.581446    0.000396
      4          6           0        0.675811   -7.209661    0.000297
      5         16           0       -0.698049   -6.049934    0.000066
      6          8           0        2.850171   -4.269347    0.000369
      7          1           0        2.821652   -7.111853    0.000538
      8          6           0        0.056328   -3.290723   -0.000020
      9          6           0       -1.230286   -2.778738   -0.000208
     10          6           0       -1.338331   -1.363529   -0.000317
     11          6           0       -0.131983   -0.701886   -0.000211
     12         16           0        1.248744   -1.897157    0.000037
     13          8           0       -2.303658   -3.663865   -0.000293
     14          1           0       -2.282018   -0.841224   -0.000480
     15          6           0        4.209246   -4.798203    0.000449
     16          1           0        4.381563   -5.404512   -0.890556
     17          1           0        4.381485   -5.404442    0.891517
     18          6           0       -3.661251   -3.131564   -0.000411
     19          1           0       -3.831790   -2.524544    0.890483
     20          1           0       -3.831662   -2.524623   -0.891383
     21          1           0        0.468997   -8.264454    0.000339
     22          6           0       -0.056328    3.290723   -0.000233
     23          6           0        1.230286    2.778738   -0.000249
     24          6           0        1.338330    1.363530   -0.000286
     25          6           0        0.131982    0.701887   -0.000280
     26         16           0       -1.248744    1.897157   -0.000510
     27          8           0        2.303656    3.663866   -0.000133
     28          1           0        2.282018    0.841225   -0.000233
     29          6           0       -0.489505    4.649219   -0.000077
     30          6           0       -1.777518    5.154934   -0.000100
     31          6           0       -1.882724    6.581446    0.000111
     32          6           0       -0.675811    7.209661    0.000331
     33         16           0        0.698049    6.049934    0.000180
     34          8           0       -2.850171    4.269348   -0.000422
     35          1           0       -2.821651    7.111854    0.000095
     36          6           0        3.661250    3.131566   -0.000360
     37          1           0        3.831623    2.524703   -0.891394
     38          1           0        3.831828    2.524465    0.890473
     39          6           0       -4.209246    4.798203    0.000903
     40          1           0       -4.380768    5.404088    0.892349
     41          1           0       -4.382280    5.404868   -0.889723
     42          1           0       -0.468997    8.264454    0.000523
     43          6           0        4.584887    4.332914   -0.000291
     44          1           0        4.408080    4.946079   -0.889643
     45          1           0        4.408180    4.945888    0.889212
     46          6           0        5.129930   -3.594424    0.000444
     47          1           0        4.951381   -2.981936   -0.889111
     48          1           0        4.951285   -2.981858    0.889926
     49          6           0       -4.584888   -4.332913   -0.000413
     50          1           0       -4.408115   -4.946000   -0.889826
     51          1           0       -4.408146   -4.945967    0.889029
     52          6           0       -5.129929    3.594423    0.000935
     53          1           0       -4.951263    2.981947   -0.888606
     54          1           0       -4.951398    2.981848    0.890431
     55          8           0        6.477453   -4.127681    0.000540
     56          8           0        5.931817    3.796572   -0.000426
     57          8           0       -5.931817   -3.796571   -0.000449
     58          8           0       -6.477452    4.127678    0.000919
     59          6           0        7.511117   -3.111680    0.000530
     60          1           0        7.446270   -2.480189   -0.891679
     61          1           0        7.446188   -2.480089    0.892661
     62          6           0        6.966918    4.810571   -0.000401
     63          1           0        6.903185    5.442367   -0.892584
     64          1           0        6.903317    5.442190    0.891916
     65          6           0       -7.511117    3.111675    0.000590
     66          1           0       -7.446106    2.480314   -0.891696
     67          1           0       -7.446347    2.479956    0.892643
     68          6           0       -6.966919   -4.810570   -0.000550
     69          1           0       -6.903306   -5.442312    0.891680
     70          1           0       -6.903199   -5.442243   -0.892820
     71          6           0        8.854949   -3.863820    0.000635
     72          1           0        8.919875   -4.478212   -0.872983
     73          1           0        8.919788   -4.478125    0.874320
     74          6           0        8.309901    4.056915   -0.000577
     75          1           0        8.374181    3.442454    0.873039
     76          1           0        8.373999    3.442536   -0.874264
     77          6           0       -8.854949    3.863816    0.000570
     78          1           0       -8.919754    4.478277   -0.873008
     79          1           0       -8.919907    4.478052    0.874294
     80          6           0       -8.309901   -4.056913   -0.000601
     81          1           0       -8.374149   -3.442540    0.873079
     82          1           0       -8.374030   -3.442445   -0.874224
     83          8           0        9.929370   -2.920146    0.000642
     84          8           0        9.385386    4.999376   -0.000645
     85          8           0       -9.929370    2.920143    0.000355
     86          8           0       -9.385387   -4.999373   -0.000726
     87          6           0       11.177565   -3.617934    0.000762
     88          1           0       11.242015   -4.233726   -0.871904
     89          1           0       11.981146   -2.911426   -0.001113
     90          1           0       11.243498   -4.230773    0.875395
     91          6           0       10.632793    4.300179   -0.000901
     92          1           0       11.437171    5.005779   -0.003027
     93          1           0       10.698300    3.687273    0.873717
     94          1           0       10.696282    3.684309   -0.873582
     95          6           0      -11.177565    3.617932    0.000449
     96          1           0      -11.242717    4.232431   -0.873076
     97          1           0      -11.981147    2.911423    0.000266
     98          1           0      -11.242793    4.232063    0.874227
     99          6           0      -10.632793   -4.300175   -0.000802
    100          1           0      -10.697208   -3.685735   -0.874423
    101          1           0      -11.437172   -5.005777   -0.000918
    102          1           0      -10.697372   -3.685838    0.872880
 ---------------------------------------------------------------------
 Rotational constants (GHZ):           0.0349207           0.0195688           0.0125607
 Leave Link  202 at Mon Jan 13 08:24:06 2020, MaxMem=  6710886400 cpu:               0.1 elap:               0.0
 (Enter /apps/gaussian/g16-a03/l301.exe)
 Standard basis: 6-311G(d,p) (5D, 7F)
 Ernie: Thresh=  0.10000D-02 Tol=  0.10000D-05 Strict=F.
 There are  1320 symmetry adapted cartesian basis functions of A   symmetry.
 There are  1268 symmetry adapted basis functions of A   symmetry.
  1268 basis functions,  2120 primitive gaussians,  1320 cartesian basis functions
   213 alpha electrons      213 beta electrons
       nuclear repulsion energy      7379.0419009986 Hartrees.
 IExCor=  402 DFT=T Ex+Corr=B3LYP ExCW=0 ScaHFX=  0.200000
 ScaDFX=  0.800000  0.720000  1.000000  0.810000 ScalE2=  1.000000  1.000000
 IRadAn=      5 IRanWt=     -1 IRanGd=            0 ICorTp=0 IEmpDi=  4
 NAtoms=  102 NActive=  102 NUniq=  102 SFac= 1.00D+00 NAtFMM=   60 NAOKFM=T Big=T
 Integral buffers will be    131072 words long.
 Raffenetti 2 integral format.
 Two-electron integral symmetry is turned on.
 Leave Link  301 at Mon Jan 13 08:24:06 2020, MaxMem=  6710886400 cpu:               0.6 elap:               0.1
 (Enter /apps/gaussian/g16-a03/l302.exe)
 NPDir=0 NMtPBC=     1 NCelOv=     1 NCel=       1 NClECP=     1 NCelD=      1
         NCelK=      1 NCelE2=     1 NClLst=     1 CellRange=     0.0.
 One-electron integrals computed using PRISM.
 One-electron integral symmetry used in STVInt
 NBasis=  1268 RedAO= T EigKep=  1.82D-04  NBF=  1268
 NBsUse=  1268 1.00D-06 EigRej= -1.00D+00 NBFU=  1268
 Precomputing XC quadrature grid using
 IXCGrd= 4 IRadAn=           5 IRanWt=          -1 IRanGd=           0 AccXCQ= 0.00D+00.
 Generated NRdTot=       0 NPtTot=           0 NUsed=           0 NTot=          32
 NSgBfM=  1054  1043  1049  1049  1054 MxSgAt=   102 MxSgA2=   102.
 Leave Link  302 at Mon Jan 13 08:24:10 2020, MaxMem=  6710886400 cpu:              38.0 elap:               4.8
 (Enter /apps/gaussian/g16-a03/l303.exe)
 DipDrv:  MaxL=1.
 Leave Link  303 at Mon Jan 13 08:24:11 2020, MaxMem=  6710886400 cpu:               2.0 elap:               0.3
 (Enter /apps/gaussian/g16-a03/l401.exe)
 ExpMin= 7.71D-02 ExpMax= 9.34D+04 ExpMxC= 3.17D+03 IAcc=3 IRadAn=         5 AccDes= 0.00D+00
 Harris functional with IExCor=  402 and IRadAn=       5 diagonalized for initial guess.
 HarFok:  IExCor=  402 AccDes= 0.00D+00 IRadAn=         5 IDoV= 1 UseB2=F ITyADJ=14
 ICtDFT=  3500011 ScaDFX=  1.000000  1.000000  1.000000  1.000000
 FoFCou: FMM=F IPFlag=           0 FMFlag=      100000 FMFlg1=        2001
         NFxFlg=           0 DoJE=T BraDBF=F KetDBF=T FulRan=T
         wScrn=  0.000000 ICntrl=       500 IOpCl=  0 I1Cent=   200000004 NGrid=           0
         NMat0=    1 NMatS0=      1 NMatT0=    0 NMatD0=    1 NMtDS0=    0 NMtDT0=    0
 Petite list used in FoFCou.
 Harris En= -3897.75286940392    
 JPrj=0 DoOrth=F DoCkMO=F.
 Leave Link  401 at Mon Jan 13 08:24:27 2020, MaxMem=  6710886400 cpu:             129.9 elap:              16.3
 (Enter /apps/gaussian/g16-a03/l502.exe)
 Integral symmetry usage will be decided dynamically.
 Closed shell SCF:
 Using DIIS extrapolation, IDIIS=  1040.
 NGot=  6710886400 LenX=  6707378030 LenY=  6705634310
 Requested convergence on RMS density matrix=1.00D-08 within 128 cycles.
 Requested convergence on MAX density matrix=1.00D-06.
 Requested convergence on             energy=1.00D-06.
 No special actions if energy rises.
 Fock matrices will be formed incrementally for  20 cycles.
 Integral accuracy reduced to 1.0D-05 until final iterations.

 Cycle   1  Pass 0  IDiag  1:
 FoFJK:  IHMeth= 1 ICntrl=       0 DoSepK=F KAlg= 0 I1Cent=           0 FoldK=F
 IRaf= 410000000 NMat=       1 IRICut=       1 DoRegI=T DoRafI=F ISym2E= 0 IDoP0=0 IntGTp=1.
 FoFCou: FMM=T IPFlag=           0 FMFlag=      100000 FMFlg1=        2001
         NFxFlg=           0 DoJE=F BraDBF=F KetDBF=F FulRan=T
         wScrn=  0.000000 ICntrl=         0 IOpCl=  0 I1Cent=           0 NGrid=           0
         NMat0=    1 NMatS0=      1 NMatT0=    0 NMatD0=    1 NMtDS0=    0 NMtDT0=    0
 Symmetry not used in FoFCou.
 FMM levels:  10  Number of levels for PrismC:   9
 E= -3896.53747925505    
 DIIS: error= 3.48D-02 at cycle   1 NSaved=   1.
 NSaved= 1 IEnMin= 1 EnMin= -3896.53747925505     IErMin= 1 ErrMin= 3.48D-02
 ErrMax= 3.48D-02  0.00D+00 EMaxC= 1.00D-01 BMatC= 1.49D+00 BMatP= 1.49D+00
 IDIUse=3 WtCom= 6.52D-01 WtEn= 3.48D-01
 Coeff-Com:  0.100D+01
 Coeff-En:   0.100D+01
 Coeff:      0.100D+01
 Gap=     0.067 Goal=   None    Shift=    0.000
 GapD=    0.067 DampG=0.500 DampE=0.500 DampFc=0.2500 IDamp=-1.
 Damping current iteration by 2.50D-01
 RMSDP=1.87D-03 MaxDP=1.29D-01              OVMax= 2.50D-01

 Cycle   2  Pass 0  IDiag  1:
 RMSU=  4.65D-04    CP:  9.95D-01
 E= -3897.01800802274     Delta-E=       -0.480528767681 Rises=F Damp=T
 DIIS: error= 1.60D-02 at cycle   2 NSaved=   2.
 NSaved= 2 IEnMin= 2 EnMin= -3897.01800802274     IErMin= 2 ErrMin= 1.60D-02
 ErrMax= 1.60D-02  0.00D+00 EMaxC= 1.00D-01 BMatC= 3.86D-01 BMatP= 1.49D+00
 IDIUse=3 WtCom= 8.40D-01 WtEn= 1.60D-01
 Coeff-Com: -0.829D+00 0.183D+01
 Coeff-En:   0.000D+00 0.100D+01
 Coeff:     -0.696D+00 0.170D+01
 Gap=     0.173 Goal=   None    Shift=    0.000
 RMSDP=4.92D-04 MaxDP=3.26D-02 DE=-4.81D-01 OVMax= 2.52D-01

 Cycle   3  Pass 0  IDiag  1:
 RMSU=  4.61D-04    CP:  9.93D-01  1.37D+00
 E= -3897.80422623298     Delta-E=       -0.786218210245 Rises=F Damp=F
 DIIS: error= 5.33D-03 at cycle   3 NSaved=   3.
 NSaved= 3 IEnMin= 3 EnMin= -3897.80422623298     IErMin= 3 ErrMin= 5.33D-03
 ErrMax= 5.33D-03  0.00D+00 EMaxC= 1.00D-01 BMatC= 3.20D-02 BMatP= 3.86D-01
 IDIUse=3 WtCom= 9.47D-01 WtEn= 5.33D-02
 Coeff-Com: -0.289D+00 0.611D+00 0.678D+00
 Coeff-En:   0.000D+00 0.000D+00 0.100D+01
 Coeff:     -0.273D+00 0.579D+00 0.695D+00
 Gap=     0.094 Goal=   None    Shift=    0.000
 RMSDP=2.56D-04 MaxDP=3.78D-02 DE=-7.86D-01 OVMax= 7.60D-02

 Cycle   4  Pass 0  IDiag  1:
 RMSU=  1.63D-04    CP:  9.92D-01  1.51D+00  5.93D-01
 E= -3897.81989169329     Delta-E=       -0.015665460307 Rises=F Damp=F
 DIIS: error= 5.28D-03 at cycle   4 NSaved=   4.
 NSaved= 4 IEnMin= 4 EnMin= -3897.81989169329     IErMin= 4 ErrMin= 5.28D-03
 ErrMax= 5.28D-03  0.00D+00 EMaxC= 1.00D-01 BMatC= 1.67D-02 BMatP= 3.20D-02
 IDIUse=3 WtCom= 9.47D-01 WtEn= 5.28D-02
 Coeff-Com: -0.687D-01 0.146D+00 0.420D+00 0.503D+00
 Coeff-En:   0.000D+00 0.000D+00 0.350D+00 0.650D+00
 Coeff:     -0.651D-01 0.138D+00 0.417D+00 0.510D+00
 Gap=     0.093 Goal=   None    Shift=    0.000
 RMSDP=1.11D-04 MaxDP=1.13D-02 DE=-1.57D-02 OVMax= 3.53D-02

 Cycle   5  Pass 0  IDiag  1:
 RMSU=  6.80D-05    CP:  9.91D-01  1.48D+00  7.11D-01  5.81D-01
 E= -3897.83429124134     Delta-E=       -0.014399548050 Rises=F Damp=F
 DIIS: error= 2.16D-03 at cycle   5 NSaved=   5.
 NSaved= 5 IEnMin= 5 EnMin= -3897.83429124134     IErMin= 5 ErrMin= 2.16D-03
 ErrMax= 2.16D-03  0.00D+00 EMaxC= 1.00D-01 BMatC= 1.61D-03 BMatP= 1.67D-02
 IDIUse=3 WtCom= 9.78D-01 WtEn= 2.16D-02
 Coeff-Com: -0.125D-01 0.301D-01 0.200D+00 0.307D+00 0.476D+00
 Coeff-En:   0.000D+00 0.000D+00 0.000D+00 0.165D-01 0.984D+00
 Coeff:     -0.122D-01 0.294D-01 0.195D+00 0.300D+00 0.487D+00
 Gap=     0.094 Goal=   None    Shift=    0.000
 RMSDP=4.24D-05 MaxDP=4.74D-03 DE=-1.44D-02 OVMax= 1.25D-02

 Cycle   6  Pass 0  IDiag  1:
 RMSU=  1.90D-05    CP:  9.91D-01  1.47D+00  7.17D-01  6.78D-01  5.02D-01
 E= -3897.83567313908     Delta-E=       -0.001381897739 Rises=F Damp=F
 DIIS: error= 8.27D-04 at cycle   6 NSaved=   6.
 NSaved= 6 IEnMin= 6 EnMin= -3897.83567313908     IErMin= 6 ErrMin= 8.27D-04
 ErrMax= 8.27D-04  0.00D+00 EMaxC= 1.00D-01 BMatC= 2.21D-04 BMatP= 1.61D-03
 IDIUse=3 WtCom= 9.92D-01 WtEn= 8.27D-03
 Coeff-Com:  0.459D-02-0.643D-02 0.614D-01 0.110D+00 0.303D+00 0.528D+00
 Coeff-En:   0.000D+00 0.000D+00 0.000D+00 0.000D+00 0.126D+00 0.874D+00
 Coeff:      0.455D-02-0.638D-02 0.609D-01 0.109D+00 0.301D+00 0.530D+00
[...]
 ,0.00002807,0.,-0.00000328,-0.00000140,0.00000129,-0.00000328,-0.00000
 140,-0.00000129,-0.00005824,0.00013182,0.,-0.00000502,-0.00000376,-0.0
 0000003,-0.00000502,-0.00000376,0.00000003,-0.00000088,-0.00000062,0.,
 -0.00000403,-0.00001147,0.,-0.00000253,0.00002856,0.,0.00000259,-0.000
 00956,0.,-0.00000289,0.00000165,0.,-0.00000573,0.00000172,0.,0.0000052
 5,-0.00003080,0.,-0.00000187,0.00000228,0.,-0.00000215,0.00000274,0.,-
 0.00000208,-0.00000109,0.,0.00000039,-0.00000575,0.,0.00001523,0.00000
 084,0.,-0.00000405,0.00000051,0.,0.00000489,0.00000455,0.,-0.00000036,
 0.00000110,0.,0.00000660,0.00001374,0.,-0.00000123,-0.00000045,-0.0000
 0076,-0.00000123,-0.00000045,0.00000076,-0.00000720,-0.00000133,0.,0.0
 0000209,-0.00000061,-0.00000167,0.00000209,-0.00000061,0.00000167,0.00
 000034,0.00000026,0.,0.00000095,0.00000976,0.,0.00000004,-0.00000067,0
 .00000006,0.00000004,-0.00000067,-0.00000006,0.00000482,0.00001431,0.,
 -0.00000056,-0.00000025,-0.00000126,-0.00000056,-0.00000025,0.00000126
 ,0.00037737,0.00020753,0.00000005,-0.00004022,-0.00002961,0.00002681,-
 0.00004021,-0.00002960,-0.00002682,-0.00001159,-0.00000522,0.,0.000000
 02,0.00000066,-0.00000492,0.00000002,0.00000066,0.00000491,-0.00000222
 ,-0.00002358,0.,0.00000187,-0.00001685,0.,-0.00057290,-0.00115550,-0.0
 0000014,0.00002035,0.00000071,0.,-0.00000617,0.00001144,0.,0.00000094,
 -0.00000067,-0.00000004,0.00000094,-0.00000067,0.00000004,-0.00000611,
 0.00000949,0.,0.00000092,-0.00000055,0.00000052,0.00000092,-0.00000055
 ,-0.00000052,-0.00001825,0.00000503,0.,-0.00000011,0.00000051,-0.00000
 768,-0.00000011,0.00000051,0.00000767,0.00176755,-0.00022535,0.0000000
 6,-0.00006876,-0.00003837,-0.00010437,-0.00006877,-0.00003838,0.000104
 36,0.00000081,0.00000617,0.,-0.00000007,-0.00000037,0.00000031,-0.0000
 0007,-0.00000037,-0.00000031,-0.00000133,0.00000555,0.,0.00000024,-0.0
 0000015,0.00000032,0.00000024,-0.00000015,-0.00000032,-0.00000335,-0.0
 0000944,0.,0.00000230,0.00000153,0.00000235,0.00000231,0.00000153,-0.0
 0000235,-0.00581733,-0.00178238,-0.00000059,0.00013992,0.00003833,-0.0
 0023141,0.00013985,0.00003835,0.00023139,-0.00000272,-0.00001143,0.,-0
 .00000007,-0.00000929,0.,0.00001647,0.00002538,-0.00000001,0.01276644,
 -0.03422750,-0.00000204,0.00000498,0.00000625,0.,-0.00000108,-0.000000
 24,0.00000064,0.00000034,-0.00000104,0.,-0.00000108,-0.00000024,-0.000
 00064,0.00000282,0.00000463,0.,0.00000044,-0.00000100,0.,-0.00000076,-
 0.00000015,-0.00000016,-0.00000076,-0.00000015,0.00000016,-0.00001472,
 -0.00002354,0.,0.00000381,0.00000126,0.00000234,-0.00000217,0.00000138
 ,0.,0.00000381,0.00000126,-0.00000234,0.12631842,-0.20317434,-0.000004
 03,0.00069475,0.00221462,0.00070269,-0.13620010,0.23606098,0.,0.,-0.00
 000085,0.,0.,0.00000014,0.,0.,-0.00000055,0.,0.,-0.00000141,0.,0.,0.00
 000084,0.,0.,-0.00000034,0.,0.,0.00000056,0.,0.,-0.00000015,0.,0.00000
 001,0.00000013,0.,0.,-0.00000010,0.,0.,-0.00000009,0.,0.,0.00000007,0.
 ,-0.00000003,-0.00000050,0.,0.,-0.00000004,0.,0.,0.00000086,0.00000012
 ,0.00000001,-0.00000018,-0.00000012,-0.00000001,-0.00000018,0.,0.00000
 001,-0.00000437,0.00000081,-0.00000016,0.00000036,-0.00000081,0.000000
 16,0.00000036,0.,0.,0.00000104,0.,0.,-0.00000003,0.,0.,0.00000008,0.,0
 .,-0.00000020,0.,0.,-0.00000003,0.,0.,-0.00000004,0.,0.,-0.00000021,0.
 ,0.,0.00000020,0.,0.,-0.00000009,0.,0.,0.00000004,0.,0.,-0.00000011,0.
 ,0.,-0.00000017,0.,0.,0.00000007,0.,0.,-0.00000002,0.,0.,0.00000011,0.
 ,0.,0.00000039,0.00000006,0.,-0.00000008,-0.00000006,0.,-0.00000008,0.
 ,0.,0.00000050,-0.00000008,0.00000011,-0.00000003,0.00000008,-0.000000
 11,-0.00000003,0.,0.,0.00000012,0.,0.,0.00000030,-0.00000007,0.0000000
 3,-0.00000008,0.00000007,-0.00000003,-0.00000008,0.,0.,0.00000057,-0.0
 0000013,0.00000007,-0.00000016,0.00000013,-0.00000007,-0.00000016,0.00
 000004,0.00000001,0.00000822,0.00000164,0.00000174,-0.00000302,-0.0000
 0165,-0.00000175,-0.00000303,0.,0.,-0.00000204,-0.00000004,-0.00000023
 ,0.00000049,0.00000004,0.00000023,0.00000049,0.,0.,-0.00000053,0.,0.,-
 0.00000029,-0.00000007,-0.00000013,-0.00000604,0.,0.,0.00000263,0.,0.,
 0.00000047,-0.00000009,0.,-0.00000012,0.00000009,0.,-0.00000013,0.,0.,
 0.00000027,-0.00000006,0.,-0.00000007,0.00000006,0.,-0.00000007,0.,0.,
 -0.00000807,-0.00000031,-0.00000082,0.00000206,0.00000031,0.00000082,0
 .00000207,0.00000019,-0.00000012,0.00059232,0.00005502,0.00006644,-0.0
 0002586,-0.00005503,-0.00006643,-0.00002586,0.,0.,0.00000044,0.0000000
 9,0.00000003,-0.00000012,-0.00000009,-0.00000003,-0.00000013,0.,0.,0.0
 0000030,-0.00000005,-0.00000001,-0.00000008,0.00000005,0.00000001,-0.0
 0000008,0.,0.00000001,-0.00000093,0.00000094,0.,0.00000045,-0.00000094
 ,0.,0.00000045,-0.00000065,-0.00000040,0.00015897,-0.00023354,0.000344
 37,0.00028663,0.00023354,-0.00034446,0.00028670,0.,0.,-0.00000035,0.,0
 .,-0.00000023,0.00000002,0.,0.00000684,0.00000216,-0.00000468,0.000120
 79,0.,0.,0.00000032,0.00000007,-0.00000001,-0.00000010,0.,0.,0.0000000
 4,-0.00000007,0.00000002,-0.00000010,0.,0.,0.00000023,0.,0.,0.00000003
 ,-0.00000005,0.00000001,-0.00000007,0.00000005,-0.00000001,-0.00000007
 ,-0.00000001,0.,-0.00000085,0.00000131,-0.00000054,0.00000065,0.,0.,-0
 .00000263,-0.00000130,0.00000053,0.00000065,0.00000292,-0.00000311,-0.
 04985127,-0.01672711,0.02087825,0.00106958,-0.00000310,0.00000645,0.04
 632553,-0.00000322,0.00000695,-0.00000144,-0.00002130,0.00002132,0.000
 00028,0.00000480,-0.00001819,-0.00000087,0.00001390,0.00001216,-0.0000
 0251,0.00000778,0.00000748,0.00000161,0.00000329,-0.00004481,-0.000000
 77,-0.00000073,-0.00000293,0.00000097,0.00000436,-0.00002639,-0.000000
 63,-0.00006289,0.00014066,0.00000121,0.00001284,-0.00002413,-0.0000021
 7,-0.00000641,0.00000986,-0.00000057,0.00000045,-0.00001756,0.00000034
 ,0.00003257,-0.00022693,-0.00000503,-0.00000991,0.00000469,0.00000222,
 0.00001395,0.00002175,0.00000155,-0.00000215,-0.00000092,0.00000028,-0
 .00000266,-0.00000095,-0.00000092,-0.00002271,0.00011274,0.00000938,-0
 .00000127,-0.00000638,-0.00000220,-0.00000527,-0.00000224,-0.00000236,
 0.00000020,0.00000114,0.00000154,-0.00000197,-0.00001335,-0.00000078,0
 .00000169,0.00002387,0.00000023,0.00000091,-0.00000728,-0.00000064,-0.
 00000528,0.00000059,-0.00000051,-0.00000637,0.00000255,0.00000066,0.00
 000445,-0.00002130,-0.00000054,-0.00000157,0.00000235,0.00000071,-0.00
 000192,0.00000347,-0.00000037,0.00000342,-0.00001133,0.00000033,-0.000
 00109,-0.00000390,-0.00000057,0.00001459,-0.00000020,-0.00000068,-0.00
 000411,0.00000209,0.00000025,0.00000253,0.00001969,-0.00000162,0.00000
 040,0.00000089,0.00000063,0.00000380,0.00000908,0.00000113,-0.00000061
 ,-0.00000028,-0.00000111,-0.00000094,-0.00000030,0.00000066,-0.0000093
 1,-0.00000958,0.00000173,0.00000312,-0.00000043,-0.00000195,0.00000179
 ,0.00000030,0.00000096,0.00000019,0.00000022,0.00000042,-0.00000004,0.
 00000681,0.00000080,0.,-0.00000047,0.,0.00000035,-0.00000065,-0.000000
 43,0.00000300,0.00001179,0.00000125,-0.00000058,-0.00000023,-0.0000010
 2,-0.00000007,-0.00000051,0.00000036,0.00021578,0.00023926,0.00002568,
 -0.00003013,-0.00001784,0.00000721,-0.00003494,-0.00002269,-0.00001954
 ,-0.00001221,-0.00001115,0.00000639,0.00000085,0.00000083,-0.00000593,
 -0.00000043,0.00000058,0.00000285,-0.00000050,-0.00001985,-0.00000102,
 0.00000216,-0.00001199,-0.00000074,-0.00011168,-0.00068281,-0.00008213
 ,0.00001566,0.00001365,-0.00000563,-0.00000594,0.00001008,0.00000096,0
 .00000072,-0.00000058,-0.00000005,0.00000106,-0.00000058,-0.00000045,-
 0.00000483,0.00000699,0.00000066,0.00000061,-0.00000041,0.00000032,0.0
 0000087,-0.00000040,-0.00000068,-0.00000953,-0.00000348,0.00001041,-0.
 00000019,0.00000118,-0.00000907,-0.00000243,-0.00000012,0.00000375,0.0
 0040039,0.00032399,-0.00012901,-0.00002903,0.00000201,-0.00001069,0.00
 013666,0.00021044,-0.00008028,-0.00000002,0.00000553,0.00000075,0.0000
 0022,-0.00000022,-0.00000017,-0.00000011,-0.00000033,-0.00000028,-0.00
 000137,0.00000411,0.00000063,0.00000010,-0.00000012,0.00000021,0.00000
 034,-0.00000004,-0.00000056,0.00000049,-0.00001338,0.00000522,0.000000
 21,0.00000120,-0.00000041,0.00000345,0.00000147,-0.00000275,-0.0007207
 8,0.00384474,-0.00115659,0.00088963,-0.00134933,-0.00036455,0.00025113
 ,-0.00045587,0.00005949,-0.00000146,-0.00000981,-0.00000062,0.00000051
 ,-0.00000662,-0.00000049,0.00001212,0.00002922,-0.00000888,-0.01891890
 ,-0.01540971,0.01679747,0.00000374,0.00000514,0.00000054,-0.00000074,-
 0.00000022,0.00000023,0.00000034,-0.00000097,0.00000007,-0.00000100,-0
 .00000017,-0.00000057,0.00000166,0.00000315,0.00000046,0.00000035,-0.0
 0000076,0.00000005,-0.00000062,-0.00000008,-0.00000014,-0.00000042,-0.
 00000012,-0.00000014,-0.00001329,-0.00002396,0.00000555,0.00000201,0.0
 0000245,-0.00000097,-0.00000380,0.00000200,0.00000310,0.00000681,0.000
 00020,-0.00000344,-0.12330974,0.00332775,0.10850326,0.01154791,0.00092
 087,-0.01476911,-0.00977194,0.00069196,0.01672563,0.13952822,-0.000001
 30,0.00000245,0.00000015,-0.00000600,0.00000526,-0.00000004,0.00000125
 ,-0.00000575,0.00000014,0.00000502,0.00000369,0.00000025,0.00000238,0.
 00000275,-0.00000005,0.00000097,-0.00001185,0.00000010,-0.00000013,-0.
 00000091,-0.00000013,0.00000176,-0.00000882,0.00000003,-0.00002082,0.0
 0004396,0.00000026,0.00000324,-0.00000765,-0.00000026,-0.00000139,0.00
 000212,0.,0.00000019,-0.00000498,-0.00000003,0.00001506,-0.00007351,-0
 .00000039,-0.00000309,0.00000108,0.00000045,0.00000371,0.00000561,-0.0
 0000023,-0.00000066,-0.00000023,0.00000019,-0.00000059,-0.00000023,-0.
 00000010,-0.00002018,0.00003475,0.00000257,-0.00000161,-0.00000460,-0.
 00000227,-0.00000112,-0.00000115,0.00000081,0.00000006,0.00000031,-0.0
 0000023,0.00000032,-0.00000470,-0.00000005,0.00000191,0.00000571,-0.00
 000003,0.00000001,-0.00000124,0.00000005,-0.00000295,-0.00000054,-0.00
 000002,-0.00000236,0.00000075,0.00000008,0.00000097,-0.00000340,0.0000
 0009,-0.00000040,0.00000083,-0.00000005,-0.00000056,0.00000151,0.00000
 004,0.00000378,-0.00000860,-0.00000002,-0.00000096,-0.00000032,0.00000
 008,0.00000395,-0.00000029,0.00000010,-0.00000120,0.00000142,-0.000000
 03,-0.00000074,0.00001344,0.00000001,0.00000054,0.00000011,-0.00000008
 ,0.00000035,0.00000134,-0.00000013,-0.00000012,-0.00000003,-0.00000025
 ,-0.00000007,-0.00000004,0.00000030,-0.00000300,-0.00000737,-0.0000003
 8,0.00000072,0.00000038,-0.00000019,0.00000065,0.00000047,0.00000026,0
 .,0.00000013,-0.00000007,-0.00000013,0.00000126,-0.00000013,0.00000009
 ,-0.00000014,0.00000011,0.00000004,-0.00000013,-0.00000004,0.00000061,
 0.00000293,-0.00000017,-0.00000003,-0.00000012,-0.00000010,-0.00000011
 ,-0.00000009,0.00000020,0.00010835,0.00009718,-0.00002944,-0.00001015,
 0.00001176,0.00000724,-0.00001262,-0.00001309,-0.00000423,-0.00000427,
 -0.00000753,0.00000106,0.00000036,0.00000018,-0.00000080,0.00000039,-0
 .00000002,0.00000029,-0.00000006,-0.00000493,0.00000016,0.00000053,-0.
 00000221,0.00000012,0.00005258,-0.00035213,-0.00013966,-0.00000327,0.0
 0001447,-0.00000093,-0.00000152,0.00000249,-0.00000016,0.00000025,-0.0
 0000015,0.00000010,0.00000019,-0.00000015,-0.00000002,-0.00000095,0.00
 000134,-0.00000012,0.00000017,-0.00000008,0.00000014,0.00000013,-0.000
 00008,-0.00000007,0.00000964,-0.00000847,0.00000333,-0.00000102,-0.000
 00072,0.00000121,-0.00000086,-0.00000113,-0.00000285,-0.00003144,0.000
 12856,0.00003487,0.00001574,0.00003846,0.00001639,0.00024402,0.0000436
 4,-0.00014599,0.00000005,0.00000128,-0.00000015,-0.00000002,-0.0000000
 7,0.00000006,0.00000004,-0.00000005,0.00000003,-0.00000031,0.00000079,
 -0.00000012,0.00000007,0.,0.00000012,0.00000002,-0.00000002,-0.0000000
 6,0.00000337,-0.00000668,-0.00000084,-0.00000133,0.00000050,-0.0000011
 1,-0.00000098,0.00000077,0.00000133,-0.00462880,0.00557804,0.00338604,
 0.00123081,0.00068935,-0.00148657,0.00040729,-0.00061239,-0.00011222,-
 0.00000036,-0.00000229,0.00000012,0.00000014,-0.00000127,0.00000010,-0
 .00001191,-0.00000267,-0.00000051,-0.02567476,-0.01415680,0.02438782,0
 .00000089,0.00000118,-0.00000012,-0.00000023,-0.00000004,0.00000013,0.
 00000007,-0.00000023,-0.00000001,-0.00000018,-0.00000005,-0.00000006,0
 .00000030,0.00000059,-0.00000009,0.00000007,-0.00000015,-0.00000001,-0
 .00000008,-0.00000002,0.00000004,-0.00000012,-0.00000001,0.00000002,0.
 00000606,0.00001079,-0.00000100,-0.00000109,-0.00000106,-0.00000074,0.
 00000182,0.00000176,-0.00000112,-0.00000205,0.00000002,0.00000180,0.00
 617437,-0.05142280,-0.00497292,0.00091809,0.00197777,0.00158365,0.0128
 2085,0.00221834,-0.02087618,0.00841361,0.05579247,0.00000530,-0.000005
 89,0.00000163,0.00000899,-0.00000564,-0.00000037,-0.00000275,0.0000113
 4,0.00000103,-0.00001538,-0.00000714,0.00000291,0.00000013,-0.00000335
 ,-0.00000179,-0.00000239,0.00001535,0.00000106,0.00000023,0.00000095,-
 0.00000116,-0.00000262,0.00001812,0.00000091,0.00002764,-0.00007137,-0
 .00000161,-0.00000275,0.00001414,0.00000347,0.00000221,-0.00000292,0.0
 0000099,0.00000162,0.00000493,-0.00000058,-0.00002556,0.00010349,0.000
 00879,0.00000534,-0.00000197,-0.00000388,-0.00000373,-0.00000683,-0.00
 000195,0.00000018,0.00000009,0.00000061,0.00000086,0.00000011,0.000000
 20,0.00002707,-0.00004888,-0.00001971,-0.00000214,0.00000702,0.0000091
 3,0.00000455,0.00000088,-0.00000058,-0.00000067,-0.00000148,-0.0000017
 0,-0.00000119,0.00001293,0.00000137,-0.00000921,-0.00000881,-0.0000003
 3,0.00000158,0.00000096,0.00000095,0.00000787,0.00000197,0.00000089,0.
 00000736,-0.00000181,-0.00000122,-0.00000179,-0.00000214,0.00000080,0.
 00000059,-0.00000219,-0.00000108,0.00000123,-0.00000505,0.00000059,-0.
 00001798,0.00003711,-0.00000057,0.00000506,-0.00000151,0.00000099,-0.0
 0001015,0.00000264,0.00000112,0.00000337,-0.00000656,-0.00000040,0.000
 00397,-0.00006044,0.00000298,-0.00000247,-0.00000002,-0.00000110,0.000
 00256,0.00000197,-0.00000168,-0.00000064,-0.00000017,0.00000121,-0.000
 00014,-0.00000013,-0.00000053,0.00001055,0.00003279,-0.00000282,-0.000
 00386,-0.00000062,0.00000193,-0.00000121,-0.00000225,-0.00000010,0.000
 00022,-0.00000027,-0.00000069,0.00000144,-0.00000012,-0.00000121,-0.00
 000002,0.00000012,-0.00000011,-0.00000055,0.00000039,0.00000077,-0.000
 00016,-0.00000451,-0.00000171,0.00000036,0.00000012,0.00000028,-0.0000
 0029,0.00000049,0.00000062,-0.00009656,-0.00009155,-0.00002989,0.00000
 547,0.00000884,0.00000215,0.00001731,0.00000794,0.00001057,0.00002723,
 0.00004037,-0.00001400,-0.00000455,-0.00000202,0.00000579,-0.00000202,
 -0.00000102,0.00000097,-0.00000128,0.00000812,0.00000134,-0.00000189,0
 .00000065,0.00000108,0.00007316,0.00042357,0.00004052,0.00000369,-0.00
 008027,0.00001378,0.00000325,-0.00000463,-0.00000129,-0.00000022,0.000
 00025,-0.00000005,-0.00000066,0.00000026,0.00000071,0.00000122,-0.0000
 0095,-0.00000098,-0.00000001,0.00000005,-0.00000005,-0.00000038,0.0000
 0004,0.00000056,-0.00002490,0.00004621,-0.00002908,0.00000047,-0.00000
 032,0.00000163,0.00000580,0.00000442,0.00001335,-0.00044575,-0.0000322
 9,0.00031402,-0.00002714,-0.00000922,0.00000315,-0.00013038,-0.0002261
 5,0.00000905,0.00000078,-0.00000260,-0.00000096,-0.00000039,-0.0000000
 1,0.00000047,0.00000004,0.00000013,0.00000010,0.00000101,-0.00000068,-
 0.00000088,0.00000003,0.,-0.00000007,-0.00000032,-0.00000011,0.0000005
 7,-0.00003832,0.00006832,-0.00001212,0.00001257,-0.00000632,0.00000999
 ,0.00000383,-0.00000643,-0.00000236,-0.00004181,-0.00159895,0.00109680
 ,-0.00022608,0.00155262,-0.00015090,-0.00005483,-0.00011168,-0.0005812
 4,-0.00000034,0.00000414,0.00000081,-0.00000111,0.00000064,0.00000070,
 0.00005272,-0.00006617,0.00002775,0.00285471,0.00675826,0.00741989,-0.
 00000099,-0.00000192,-0.00000070,0.00000013,0.00000011,0.00000021,-0.0
 0000018,0.00000050,-0.00000009,0.00000046,0.00000004,0.00000024,0.0000
 0048,-0.00000005,-0.00000064,-0.00000011,0.00000016,-0.00000007,0.0000
 0014,-0.00000004,0.,-0.00000014,0.00000002,0.00000040,-0.00003200,0.00
 003006,-0.00001284,0.00001345,-0.00001031,0.00001302,-0.00000505,-0.00
 002085,-0.00001210,-0.00000119,-0.00000281,-0.00000129,0.11005363,-0.0
 0276360,-0.21625975,0.01477415,-0.00157935,-0.02218393,-0.00128400,-0.
 00070239,0.00106813,-0.12550579,-0.00164885,0.22923918\\-0.00000104,-0
 .00000165,-0.00000137,-0.00000016,-0.00000290,0.00000045,-0.00000017,-
 0.00000313,0.00000158,-0.00000240,0.00000396,-0.00000257,-0.00000207,0
 .00000012,0.00000303,0.00000185,0.00000333,0.00000009,0.00000115,0.000
 00016,0.00000020,0.00000039,-0.00000439,-0.00000019,0.00000196,0.00000
 446,-0.00000017,-0.00000023,0.00000175,-0.00000001,0.00000078,-0.00000
 001,-0.00000035,-0.00000512,0.00000365,-0.00000081,0.00000205,-0.00000
 210,-0.00000025,0.00000007,0.00000024,0.00000011,-0.00000079,0.0000003
 2,0.00000007,-0.00000064,0.00000003,-0.00000016,-0.00000066,0.00000016
 ,0.00000015,0.00000173,-0.00000069,0.00000003,0.00000073,0.00000002,0.
 00000013,0.00000075,0.,-0.00000016,0.00000013,-0.00000041,-0.00000060,
 -0.00000040,0.00000439,-0.00000160,-0.00000197,-0.00000446,0.00000076,
 0.00000023,-0.00000175,0.00000174,-0.00000078,0.00000001,-0.00000256,0
 .00000512,-0.00000365,0.00000330,-0.00000205,0.00000210,0.00000028,-0.
 00000007,-0.00000024,0.00000014,0.00000104,0.00000165,0.00000058,0.000
 00016,0.00000290,0.00000124,0.00000017,0.00000314,-0.00000130,0.000002
 40,-0.00000396,0.00000144,0.00000206,-0.00000011,-0.00000198,-0.000001
 85,-0.00000333,-0.00000263,-0.00000115,-0.00000017,-0.00000013,-0.0000
 0173,0.00000069,-0.00000003,-0.00000072,-0.00000015,-0.00000014,-0.000
 00077,0.00000012,0.00000015,0.00000079,-0.00000032,0.00000131,0.000000
 62,0.00000042,0.00000009,0.00000067,-0.00000060,-0.00000021,-0.0000001
 2,0.00000041,0.00000038,0.00000098,-0.00000098,-0.00000004,0.00000018,
 0.,-0.00000016,0.00000017,-0.00000003,0.00000017,0.00000073,-0.0000005
 0,-0.00000001,0.00000021,0.00000029,-0.00000009,0.00000022,0.00000028,
 0.00000009,-0.00000098,0.00000098,0.00000004,-0.00000017,-0.00000002,-
 0.00000018,-0.00000017,0.00000005,0.00000016,-0.00000073,0.00000050,0.
 00000005,-0.00000014,0.00000001,-0.00000007,-0.00000028,-0.00000058,0.
 00000011,-0.00000135,0.00000186,0.,-0.00000153,0.00000186,0.00000003,0
 .00000153,-0.00000186,0.00000002,0.00000135,-0.00000186,-0.00000027,-0
 .00000027,-0.00000123,0.,0.00000021,-0.00000008,0.00000013,0.00000020,
 -0.00000010,-0.00000015,-0.00000018,-0.00000130,-0.00000001,0.00000018
 ,-0.00000030,0.00000012,0.00000017,-0.00000032,-0.00000014,0.00000027,
 0.00000123,0.00000013,-0.00000019,0.00000011,0.00000015,-0.00000022,0.
 00000007,-0.00000013,0.00000018,0.00000130,-0.00000002,-0.00000018,0.0
 0000031,-0.00000013,-0.00000018,0.00000031,0.00000013,0.00000240,0.000
 00059,-0.00000016,-0.00000103,-0.00000081,-0.00000147,-0.00000103,-0.0
 0000086,0.00000149,0.00000231,0.00000040,-0.00000017,-0.00000105,-0.00
 000106,0.00000146,-0.00000103,-0.00000101,-0.00000145,-0.00000240,-0.0
 0000059,-0.00000003,0.00000103,0.00000082,-0.00000147,0.00000103,0.000
 00086,0.00000149,-0.00000231,-0.00000040,0.,0.00000105,0.00000104,0.00
 000145,0.00000104,0.00000103,-0.00000146,-0.00000349,0.00000056,0.0000
 0022,-0.00000351,0.00000039,0.00000026,0.00000349,-0.00000056,0.,0.000
 00351,-0.00000039,0.,0.00000143,-0.00000053,-0.00000009,0.00000101,0.0
 0000084,-0.00000163,-0.00000221,0.00000175,-0.00000007,0.00000095,0.00
 000091,0.00000171,0.00000130,-0.00000103,-0.00000010,-0.00000230,0.000
 00159,-0.00000008,0.00000097,0.00000075,0.00000171,0.00000105,0.000000
 67,-0.00000164,-0.00000143,0.00000054,-0.00000002,-0.00000098,-0.00000
 087,-0.00000166,0.00000221,-0.00000175,0.,-0.00000099,-0.00000087,0.00
 000168,-0.00000130,0.00000103,0.,-0.00000101,-0.00000071,-0.00000168,0
 .00000230,-0.00000159,0.,-0.00000100,-0.00000071,0.00000167\\\@


 ROSE IS A RED
 TY COBB IS BLUE
 'CAUSE PETE JUST HIT
 NO. 4592.
 Job cpu time:       1 days 22 hours 27 minutes 15.0 seconds.
 Elapsed time:       0 days  5 hours 51 minutes  7.7 seconds.
 File lengths (MBytes):  RWF=  15347 Int=      0 D2E=      0 Chk=    131 Scr=      1
 Normal termination of Gaussian 16 at Mon Jan 13 15:20:55 2020.
