 Entering Gaussian System, Link 0=g16
 Input=O3G_1m_0sc_opt.gjf
 Output=O3G_1m_0sc_opt.log
 Initial command:
 /apps/gaussian/g16-a03/l1.exe "/tmp/pbs.954133.pbs/Gau-9965.inp" -scrdir="/tmp/pbs.954133.pbs/"
 Entering Link 1 = /apps/gaussian/g16-a03/l1.exe PID=      9966.
  
 Copyright (c) 1988,1990,1992,1993,1995,1998,2003,2009,2016,
            Gaussian, Inc.  All Rights Reserved.
  
 This is part of the Gaussian(R) 16 program.  It is based on
 the Gaussian(R) 09 system (copyright 2009, Gaussian, Inc.),
 the Gaussian(R) 03 system (copyright 2003, Gaussian, Inc.),
 the Gaussian(R) 98 system (copyright 1998, Gaussian, Inc.),
 the Gaussian(R) 94 system (copyright 1995, Gaussian, Inc.),
 the Gaussian 92(TM) system (copyright 1992, Gaussian, Inc.),
 the Gaussian 90(TM) system (copyright 1990, Gaussian, Inc.),
 the Gaussian 88(TM) system (copyright 1988, Gaussian, Inc.),
 the Gaussian 86(TM) system (copyright 1986, Carnegie Mellon
 University), and the Gaussian 82(TM) system (copyright 1983,
 Carnegie Mellon University). Gaussian is a federally registered
 trademark of Gaussian, Inc.
  
 This software contains proprietary and confidential information,
 including trade secrets, belonging to Gaussian, Inc.
  
 This software is provided under written license and may be
 used, copied, transmitted, or stored only in accord with that
 written license.
  
 The following legend is applicable only to US Government
 contracts under FAR:
  
                    RESTRICTED RIGHTS LEGEND
  
 Use, reproduction and disclosure by the US Government is
 subject to restrictions as set forth in subparagraphs (a)
 and (c) of the Commercial Computer Software - Restricted
 Rights clause in FAR 52.227-19.
  
 Gaussian, Inc.
 340 Quinnipiac St., Bldg. 40, Wallingford CT 06492
  
  
 ---------------------------------------------------------------
 Warning -- This program may not be used in any manner that
 competes with the business of Gaussian, Inc. or will provide
 assistance to any competitor of Gaussian, Inc.  The licensee
 of this program is prohibited from giving any competitor of
 Gaussian, Inc. access to this program.  By using this program,
 the user acknowledges that Gaussian, Inc. is engaged in the
 business of creating and licensing software in the field of
 computational chemistry and represents and warrants to the
 licensee that it is not a competitor of Gaussian, Inc. and that
 it will not use this program in any manner prohibited above.
 ---------------------------------------------------------------
  

 Cite this work as:
 Gaussian 16, Revision A.03,
 M. J. Frisch, G. W. Trucks, H. B. Schlegel, G. E. Scuseria, 
 M. A. Robb, J. R. Cheeseman, G. Scalmani, V. Barone, 
 G. A. Petersson, H. Nakatsuji, X. Li, M. Caricato, A. V. Marenich, 
 J. Bloino, B. G. Janesko, R. Gomperts, B. Mennucci, H. P. Hratchian, 
 J. V. Ortiz, A. F. Izmaylov, J. L. Sonnenberg, D. Williams-Young, 
 F. Ding, F. Lipparini, F. Egidi, J. Goings, B. Peng, A. Petrone, 
 T. Henderson, D. Ranasinghe, V. G. Zakrzewski, J. Gao, N. Rega, 
 G. Zheng, W. Liang, M. Hada, M. Ehara, K. Toyota, R. Fukuda, 
 J. Hasegawa, M. Ishida, T. Nakajima, Y. Honda, O. Kitao, H. Nakai, 
 T. Vreven, K. Throssell, J. A. Montgomery, Jr., J. E. Peralta, 
 F. Ogliaro, M. J. Bearpark, J. J. Heyd, E. N. Brothers, K. N. Kudin, 
 V. N. Staroverov, T. A. Keith, R. Kobayashi, J. Normand, 
 K. Raghavachari, A. P. Rendell, J. C. Burant, S. S. Iyengar, 
 J. Tomasi, M. Cossi, J. M. Millam, M. Klene, C. Adamo, R. Cammi, 
 J. W. Ochterski, R. L. Martin, K. Morokuma, O. Farkas, 
 J. B. Foresman, and D. J. Fox, Gaussian, Inc., Wallingford CT, 2016.
 
 ******************************************
 Gaussian 16:  ES64L-G16RevA.03 25-Dec-2016
                13-Jan-2020 
 ******************************************
 %mem=50GB
 %nprocshared=16
 Will use up to   16 processors via shared memory.
 ------------------------
 #p opt b3lyp/6-311g(d,p)
 ------------------------
 1/18=20,19=15,26=3,38=1/1,3;
 2/9=110,12=2,17=6,18=5,40=1/2;
 3/5=4,6=6,7=101,11=2,25=1,30=1,71=1,74=-5/1,2,3;
 4//1;
 5/5=2,38=5/2;
 6/7=2,8=2,9=2,10=2,28=1/1;
 7//1,2,3,16;
 1/18=20,19=15,26=3/3(2);
 2/9=110/2;
 99//99;
 2/9=110/2;
 3/5=4,6=6,7=101,11=2,25=1,30=1,71=1,74=-5/1,2,3;
 4/5=5,16=3,69=1/1;
 5/5=2,38=5/2;
 7//1,2,3,16;
 1/18=20,19=15,26=3/3(-5);
 2/9=110/2;
 6/7=2,8=2,9=2,10=2,19=2,28=1/1;
 99/9=1/99;
 Leave Link    1 at Mon Jan 13 11:44:24 2020, MaxMem=  6710886400 cpu:               0.6 elap:               0.0
 (Enter /apps/gaussian/g16-a03/l101.exe)
 ------------------
 O3G_1m_0sc_opt.gjf
 ------------------
 Symbolic Z-matrix:
 Charge =  0 Multiplicity = 1
 C                     4.40303  -0.41485  -0.12432 
 C                     5.17833   0.73129  -0.12414 
 C                     6.5933    0.52179  -0.12404 
 C                     6.94219  -0.79334  -0.12414 
 S                     5.50994  -1.88013  -0.12437 
 O                     4.54893   1.97173  -0.12407 
 H                     7.31631   1.3219   -0.1239 
 C                     2.98267  -0.54027  -0.12446 
 C                     2.20156  -1.68367  -0.12464 
 C                     0.797    -1.47942  -0.12475 
 C                     0.41537  -0.15752  -0.12465 
 S                     1.8838    0.92819  -0.1244 
 O                     2.83036  -2.92471  -0.12473 
 H                     0.08086  -2.28594  -0.12492 
 C                     5.36236   3.18214  -0.12399 
 H                     5.99168   3.21761  -1.01499 
 H                     5.9916    3.21755   0.76708 
 C                     2.01389  -4.13292  -0.12485 
 H                     1.38426  -4.1665    0.76605 
 H                     1.38437  -4.16639  -1.01582 
 C                     4.38922   4.34392  -0.12399 
 H                     3.7525    4.30373  -1.01355 
 H                     3.75241   4.30365   0.76549 
 C                     2.98401  -5.29705  -0.12485 
 H                     3.62092  -5.25872  -1.01426 
 H                     3.62088  -5.25874   0.76459 
 O                     5.20442   5.5421   -0.1239 
 O                     2.16593  -6.49398  -0.12489 
 C                     4.43922   6.77304  -0.12391 
 H                     3.80885   6.84794  -1.01612 
 H                     3.80873   6.84789   0.76822 
 C                     2.92886  -7.72588  -0.12499 
 H                     3.55921  -7.80205   0.76724 
 H                     3.55917  -7.80193  -1.01726 
 C                     5.46719   7.91972  -0.1238 
 H                     6.0809    7.84863  -0.99742 
 H                     6.0808    7.84856   0.74988 
 C                     1.89959  -8.8714   -0.12504 
 H                     1.28605  -8.79965   0.74864 
 H                     1.28599  -8.79952  -0.99866 
 O                     4.78149   9.1746   -0.12379 
 O                     2.58388  -10.12705  -0.12516 
 C                     1.62867  -11.19123  -0.12524 
 H                     1.01502  -11.11963  -0.99886 
 H                     1.01509  -11.11981   0.74844 
 C                     5.7355    10.23985  -0.12367 
 H                     6.35047   10.16799  -0.99634 
 H                     6.34792   10.17008   0.75096 
 C                     4.99638   11.59088  -0.12637 
 H                     4.38119   11.66262   0.74615 
 H                     4.38419   11.66077  -1.00115 
 O                     5.95039   12.65614  -0.12586 
 C                     5.26469   13.91102  -0.12758 
 H                     4.65004   13.98279   0.74532 
 H                     5.97893   14.70774  -0.12737 
 H                     4.65202   13.98148  -1.00198 
 C                     2.36626  -12.5431  -0.12541 
 H                     2.97984  -12.61451  -0.99909 
 H                     2.97991  -12.61469   0.74821 
 O                     1.41105  -13.60727  -0.12547 
 C                     2.09534  -14.86292  -0.12561 
 H                     1.3802   -15.65884  -0.12566 
 H                     2.70889  -14.93466  -0.99928 
 H                     2.70894  -14.93482   0.74802 
 H                     7.95395  -1.07414  -0.12408 
 H                    -0.44392   0.4459   -0.12466 
 
 ITRead=  0  0  0  0  0  0  0  0  0  0  0  0  0  0  0  0  0  0  0  0
 ITRead=  0  0  0  0  0  0  0  0  0  0  0  0  0  0  0  0  0  0  0  0
 ITRead=  0  0  0  0  0  0  0  0  0  0  0  0  0  0  0  0  0  0  0  0
 ITRead=  0  0  0  0  0  0
 MicOpt= -1 -1 -1 -1 -1 -1 -1 -1 -1 -1 -1 -1 -1 -1 -1 -1 -1 -1 -1 -1
 MicOpt= -1 -1 -1 -1 -1 -1 -1 -1 -1 -1 -1 -1 -1 -1 -1 -1 -1 -1 -1 -1
 MicOpt= -1 -1 -1 -1 -1 -1 -1 -1 -1 -1 -1 -1 -1 -1 -1 -1 -1 -1 -1 -1
 MicOpt= -1 -1 -1 -1 -1 -1
 NAtoms=     66 NQM=       66 NQMF=       0 NMMI=      0 NMMIF=      0
                NMic=       0 NMicF=      0.
                    Isotopes and Nuclear Properties:
 (Nuclear quadrupole moments (NQMom) in fm**2, nuclear magnetic moments (NMagM)
  in nuclear magnetons)

  Atom         1           2           3           4           5           6           7           8           9          10
 IAtWgt=          12          12          12          12          32          16           1          12          12          12
 AtmWgt=  12.0000000  12.0000000  12.0000000  12.0000000  31.9720718  15.9949146   1.0078250  12.0000000  12.0000000  12.0000000
 NucSpn=           0           0           0           0           0           0           1           0           0           0
 AtZEff=  -0.0000000  -0.0000000  -0.0000000  -0.0000000  -0.0000000  -0.0000000  -0.0000000  -0.0000000  -0.0000000  -0.0000000
 NQMom=    0.0000000   0.0000000   0.0000000   0.0000000   0.0000000   0.0000000   0.0000000   0.0000000   0.0000000   0.0000000
 NMagM=    0.0000000   0.0000000   0.0000000   0.0000000   0.0000000   0.0000000   2.7928460   0.0000000   0.0000000   0.0000000
 AtZNuc=   6.0000000   6.0000000   6.0000000   6.0000000  16.0000000   8.0000000   1.0000000   6.0000000   6.0000000   6.0000000

  Atom        11          12          13          14          15          16          17          18          19          20
 IAtWgt=          12          32          16           1          12           1           1          12           1           1
 AtmWgt=  12.0000000  31.9720718  15.9949146   1.0078250  12.0000000   1.0078250   1.0078250  12.0000000   1.0078250   1.0078250
 NucSpn=           0           0           0           1           0           1           1           0           1           1
 AtZEff=  -0.0000000  -0.0000000  -0.0000000  -0.0000000  -0.0000000  -0.0000000  -0.0000000  -0.0000000  -0.0000000  -0.0000000
 NQMom=    0.0000000   0.0000000   0.0000000   0.0000000   0.0000000   0.0000000   0.0000000   0.0000000   0.0000000   0.0000000
 NMagM=    0.0000000   0.0000000   0.0000000   2.7928460   0.0000000   2.7928460   2.7928460   0.0000000   2.7928460   2.7928460
 AtZNuc=   6.0000000  16.0000000   8.0000000   1.0000000   6.0000000   1.0000000   1.0000000   6.0000000   1.0000000   1.0000000

  Atom        21          22          23          24          25          26          27          28          29          30
 IAtWgt=          12           1           1          12           1           1          16          16          12           1
 AtmWgt=  12.0000000   1.0078250   1.0078250  12.0000000   1.0078250   1.0078250  15.9949146  15.9949146  12.0000000   1.0078250
 NucSpn=           0           1           1           0           1           1           0           0           0           1
 AtZEff=  -0.0000000  -0.0000000  -0.0000000  -0.0000000  -0.0000000  -0.0000000  -0.0000000  -0.0000000  -0.0000000  -0.0000000
 NQMom=    0.0000000   0.0000000   0.0000000   0.0000000   0.0000000   0.0000000   0.0000000   0.0000000   0.0000000   0.0000000
 NMagM=    0.0000000   2.7928460   2.7928460   0.0000000   2.7928460   2.7928460   0.0000000   0.0000000   0.0000000   2.7928460
 AtZNuc=   6.0000000   1.0000000   1.0000000   6.0000000   1.0000000   1.0000000   8.0000000   8.0000000   6.0000000   1.0000000

  Atom        31          32          33          34          35          36          37          38          39          40
 IAtWgt=           1          12           1           1          12           1           1          12           1           1
 AtmWgt=   1.0078250  12.0000000   1.0078250   1.0078250  12.0000000   1.0078250   1.0078250  12.0000000   1.0078250   1.0078250
 NucSpn=           1           0           1           1           0           1           1           0           1           1
 AtZEff=  -0.0000000  -0.0000000  -0.0000000  -0.0000000  -0.0000000  -0.0000000  -0.0000000  -0.0000000  -0.0000000  -0.0000000
 NQMom=    0.0000000   0.0000000   0.0000000   0.0000000   0.0000000   0.0000000   0.0000000   0.0000000   0.0000000   0.0000000
 NMagM=    2.7928460   0.0000000   2.7928460   2.7928460   0.0000000   2.7928460   2.7928460   0.0000000   2.7928460   2.7928460
 AtZNuc=   1.0000000   6.0000000   1.0000000   1.0000000   6.0000000   1.0000000   1.0000000   6.0000000   1.0000000   1.0000000

  Atom        41          42          43          44          45          46          47          48          49          50
 IAtWgt=          16          16          12           1           1          12           1           1          12           1
 AtmWgt=  15.9949146  15.9949146  12.0000000   1.0078250   1.0078250  12.0000000   1.0078250   1.0078250  12.0000000   1.0078250
 NucSpn=           0           0           0           1           1           0           1           1           0           1
 AtZEff=  -0.0000000  -0.0000000  -0.0000000  -0.0000000  -0.0000000  -0.0000000  -0.0000000  -0.0000000  -0.0000000  -0.0000000
 NQMom=    0.0000000   0.0000000   0.0000000   0.0000000   0.0000000   0.0000000   0.0000000   0.0000000   0.0000000   0.0000000
 NMagM=    0.0000000   0.0000000   0.0000000   2.7928460   2.7928460   0.0000000   2.7928460   2.7928460   0.0000000   2.7928460
 AtZNuc=   8.0000000   8.0000000   6.0000000   1.0000000   1.0000000   6.0000000   1.0000000   1.0000000   6.0000000   1.0000000

  Atom        51          52          53          54          55          56          57          58          59          60
 IAtWgt=           1          16          12           1           1           1          12           1           1          16
 AtmWgt=   1.0078250  15.9949146  12.0000000   1.0078250   1.0078250   1.0078250  12.0000000   1.0078250   1.0078250  15.9949146
 NucSpn=           1           0           0           1           1           1           0           1           1           0
 AtZEff=  -0.0000000  -0.0000000  -0.0000000  -0.0000000  -0.0000000  -0.0000000  -0.0000000  -0.0000000  -0.0000000  -0.0000000
 NQMom=    0.0000000   0.0000000   0.0000000   0.0000000   0.0000000   0.0000000   0.0000000   0.0000000   0.0000000   0.0000000
 NMagM=    2.7928460   0.0000000   0.0000000   2.7928460   2.7928460   2.7928460   0.0000000   2.7928460   2.7928460   0.0000000
 AtZNuc=   1.0000000   8.0000000   6.0000000   1.0000000   1.0000000   1.0000000   6.0000000   1.0000000   1.0000000   8.0000000

  Atom        61          62          63          64          65          66
 IAtWgt=          12           1           1           1           1           1
 AtmWgt=  12.0000000   1.0078250   1.0078250   1.0078250   1.0078250   1.0078250
 NucSpn=           0           1           1           1           1           1
 AtZEff=  -0.0000000  -0.0000000  -0.0000000  -0.0000000  -0.0000000  -0.0000000
 NQMom=    0.0000000   0.0000000   0.0000000   0.0000000   0.0000000   0.0000000
 NMagM=    0.0000000   2.7928460   2.7928460   2.7928460   2.7928460   2.7928460
 AtZNuc=   6.0000000   1.0000000   1.0000000   1.0000000   1.0000000   1.0000000
 Leave Link  101 at Mon Jan 13 11:44:25 2020, MaxMem=  6710886400 cpu:              14.4 elap:               0.9
 (Enter /apps/gaussian/g16-a03/l103.exe)

 GradGradGradGradGradGradGradGradGradGradGradGradGradGradGradGradGradGrad
 Berny optimization.
 Initialization pass.
                           ----------------------------
                           !    Initial Parameters    !
                           ! (Angstroms and Degrees)  !
 --------------------------                            --------------------------
 ! Name  Definition              Value          Derivative Info.                !
 --------------------------------------------------------------------------------
 ! R1    R(1,2)                  1.3837         estimate D2E/DX2                !
 ! R2    R(1,5)                  1.8364         estimate D2E/DX2                !
 ! R3    R(1,8)                  1.4259         estimate D2E/DX2                !
 ! R4    R(2,3)                  1.4304         estimate D2E/DX2                !
 ! R5    R(2,6)                  1.391          estimate D2E/DX2                !
 ! R6    R(3,4)                  1.3606         estimate D2E/DX2                !
 ! R7    R(3,7)                  1.0784         estimate D2E/DX2                !
 ! R8    R(4,5)                  1.7979         estimate D2E/DX2                !
 ! R9    R(4,65)                 1.05           estimate D2E/DX2                !
 ! R10   R(6,15)                 1.4583         estimate D2E/DX2                !
 ! R11   R(8,9)                  1.3847         estimate D2E/DX2                !
 ! R12   R(8,12)                 1.8341         estimate D2E/DX2                !
 ! R13   R(9,10)                 1.4193         estimate D2E/DX2                !
 ! R14   R(9,13)                 1.3912         estimate D2E/DX2                !
 ! R15   R(10,11)                1.3759         estimate D2E/DX2                !
 ! R16   R(10,14)                1.0786         estimate D2E/DX2                !
 ! R17   R(11,12)                1.8262         estimate D2E/DX2                !
 ! R18   R(11,66)                1.05           estimate D2E/DX2                !
 ! R19   R(13,18)                1.4582         estimate D2E/DX2                !
 ! R20   R(15,16)                1.0914         estimate D2E/DX2                !
 ! R21   R(15,17)                1.0914         estimate D2E/DX2                !
 ! R22   R(15,21)                1.5155         estimate D2E/DX2                !
 ! R23   R(18,19)                1.0914         estimate D2E/DX2                !
 ! R24   R(18,20)                1.0914         estimate D2E/DX2                !
 ! R25   R(18,24)                1.5154         estimate D2E/DX2                !
 ! R26   R(21,22)                1.0947         estimate D2E/DX2                !
 ! R27   R(21,23)                1.0947         estimate D2E/DX2                !
 ! R28   R(21,27)                1.4492         estimate D2E/DX2                !
 ! R29   R(24,25)                1.0946         estimate D2E/DX2                !
 ! R30   R(24,26)                1.0946         estimate D2E/DX2                !
 ! R31   R(24,28)                1.4498         estimate D2E/DX2                !
 ! R32   R(27,29)                1.4494         estimate D2E/DX2                !
 ! R33   R(28,32)                1.449          estimate D2E/DX2                !
 ! R34   R(29,30)                1.095          estimate D2E/DX2                !
 ! R35   R(29,31)                1.095          estimate D2E/DX2                !
 ! R36   R(29,35)                1.54           estimate D2E/DX2                !
 ! R37   R(32,33)                1.0951         estimate D2E/DX2                !
 ! R38   R(32,34)                1.0951         estimate D2E/DX2                !
 ! R39   R(32,38)                1.54           estimate D2E/DX2                !
 ! R40   R(35,36)                1.07           estimate D2E/DX2                !
 ! R41   R(35,37)                1.07           estimate D2E/DX2                !
 ! R42   R(35,41)                1.43           estimate D2E/DX2                !
 ! R43   R(38,39)                1.07           estimate D2E/DX2                !
 ! R44   R(38,40)                1.07           estimate D2E/DX2                !
 ! R45   R(38,42)                1.43           estimate D2E/DX2                !
 ! R46   R(41,46)                1.43           estimate D2E/DX2                !
 ! R47   R(42,43)                1.43           estimate D2E/DX2                !
 ! R48   R(43,44)                1.07           estimate D2E/DX2                !
 ! R49   R(43,45)                1.07           estimate D2E/DX2                !
 ! R50   R(43,57)                1.54           estimate D2E/DX2                !
 ! R51   R(46,47)                1.07           estimate D2E/DX2                !
 ! R52   R(46,48)                1.07           estimate D2E/DX2                !
 ! R53   R(46,49)                1.54           estimate D2E/DX2                !
 ! R54   R(49,50)                1.07           estimate D2E/DX2                !
 ! R55   R(49,51)                1.07           estimate D2E/DX2                !
 ! R56   R(49,52)                1.43           estimate D2E/DX2                !
 ! R57   R(52,53)                1.43           estimate D2E/DX2                !
 ! R58   R(53,54)                1.07           estimate D2E/DX2                !
 ! R59   R(53,55)                1.07           estimate D2E/DX2                !
 ! R60   R(53,56)                1.07           estimate D2E/DX2                !
 ! R61   R(57,58)                1.07           estimate D2E/DX2                !
 ! R62   R(57,59)                1.07           estimate D2E/DX2                !
 ! R63   R(57,60)                1.43           estimate D2E/DX2                !
 ! R64   R(60,61)                1.43           estimate D2E/DX2                !
 ! R65   R(61,62)                1.07           estimate D2E/DX2                !
 ! R66   R(61,63)                1.07           estimate D2E/DX2                !
 ! R67   R(61,64)                1.07           estimate D2E/DX2                !
 ! A1    A(2,1,5)              108.8554         estimate D2E/DX2                !
 ! A2    A(2,1,8)              129.1221         estimate D2E/DX2                !
 ! A3    A(5,1,8)              122.0224         estimate D2E/DX2                !
 ! A4    A(1,2,3)              115.6545         estimate D2E/DX2                !
 ! A5    A(1,2,6)              119.0203         estimate D2E/DX2                !
 ! A6    A(3,2,6)              125.3252         estimate D2E/DX2                !
 ! A7    A(2,3,4)              113.2797         estimate D2E/DX2                !
 ! A8    A(2,3,7)              123.6804         estimate D2E/DX2                !
 ! A9    A(4,3,7)              123.04           estimate D2E/DX2                !
 ! A10   A(3,4,5)              112.3334         estimate D2E/DX2                !
 ! A11   A(3,4,65)             120.3695         estimate D2E/DX2                !
 ! A12   A(5,4,65)             127.2971         estimate D2E/DX2                !
 ! A13   A(1,5,4)               89.8771         estimate D2E/DX2                !
 ! A14   A(2,6,15)             119.1943         estimate D2E/DX2                !
 ! A15   A(1,8,9)              129.3848         estimate D2E/DX2                !
 ! A16   A(1,8,12)             121.7622         estimate D2E/DX2                !
 ! A17   A(9,8,12)             108.853          estimate D2E/DX2                !
 ! A18   A(8,9,10)             116.065          estimate D2E/DX2                !
 ! A19   A(8,9,13)             118.791          estimate D2E/DX2                !
 ! A20   A(10,9,13)            125.144          estimate D2E/DX2                !
 ! A21   A(9,10,11)            114.3776         estimate D2E/DX2                !
 ! A22   A(9,10,14)            123.3291         estimate D2E/DX2                !
 ! A23   A(11,10,14)           122.2933         estimate D2E/DX2                !
 ! A24   A(10,11,12)           110.3745         estimate D2E/DX2                !
 ! A25   A(10,11,66)           141.1812         estimate D2E/DX2                !
 ! A26   A(12,11,66)           108.4443         estimate D2E/DX2                !
 ! A27   A(8,12,11)             90.3299         estimate D2E/DX2                !
 ! A28   A(9,13,18)            119.0805         estimate D2E/DX2                !
 ! A29   A(6,15,16)            110.3985         estimate D2E/DX2                !
 ! A30   A(6,15,17)            110.3985         estimate D2E/DX2                !
 ! A31   A(6,15,21)            106.1473         estimate D2E/DX2                !
 ! A32   A(16,15,17)           109.4525         estimate D2E/DX2                !
 ! A33   A(16,15,21)           110.2025         estimate D2E/DX2                !
 ! A34   A(17,15,21)           110.2024         estimate D2E/DX2                !
 ! A35   A(13,18,19)           110.3908         estimate D2E/DX2                !
 ! A36   A(13,18,20)           110.3906         estimate D2E/DX2                !
 ! A37   A(13,18,24)           106.1446         estimate D2E/DX2                !
 ! A38   A(19,18,20)           109.4299         estimate D2E/DX2                !
 ! A39   A(19,18,24)           110.2231         estimate D2E/DX2                !
 ! A40   A(20,18,24)           110.2238         estimate D2E/DX2                !
 ! A41   A(15,21,22)           110.2025         estimate D2E/DX2                !
 ! A42   A(15,21,23)           110.2024         estimate D2E/DX2                !
 ! A43   A(15,21,27)           105.8195         estimate D2E/DX2                !
 ! A44   A(22,21,23)           108.6979         estimate D2E/DX2                !
 ! A45   A(22,21,27)           110.9528         estimate D2E/DX2                !
 ! A46   A(23,21,27)           110.9527         estimate D2E/DX2                !
 ! A47   A(18,24,25)           110.2183         estimate D2E/DX2                !
 ! A48   A(18,24,26)           110.2178         estimate D2E/DX2                !
 ! A49   A(18,24,28)           105.842          estimate D2E/DX2                !
 ! A50   A(25,24,26)           108.6915         estimate D2E/DX2                !
 ! A51   A(25,24,28)           110.9296         estimate D2E/DX2                !
 ! A52   A(26,24,28)           110.9297         estimate D2E/DX2                !
 ! A53   A(21,27,29)           113.9035         estimate D2E/DX2                !
 ! A54   A(24,28,32)           113.8778         estimate D2E/DX2                !
 ! A55   A(27,29,30)           111.2251         estimate D2E/DX2                !
 ! A56   A(27,29,31)           111.2251         estimate D2E/DX2                !
 ! A57   A(27,29,35)           106.2581         estimate D2E/DX2                !
 ! A58   A(30,29,31)           109.1289         estimate D2E/DX2                !
 ! A59   A(30,29,35)           109.4751         estimate D2E/DX2                !
 ! A60   A(31,29,35)           109.4751         estimate D2E/DX2                !
 ! A61   A(28,32,33)           111.232          estimate D2E/DX2                !
 ! A62   A(28,32,34)           111.232          estimate D2E/DX2                !
 ! A63   A(28,32,38)           106.2897         estimate D2E/DX2                !
 ! A64   A(33,32,34)           109.1302         estimate D2E/DX2                !
 ! A65   A(33,32,38)           109.4513         estimate D2E/DX2                !
 ! A66   A(34,32,38)           109.4514         estimate D2E/DX2                !
 ! A67   A(29,35,36)           109.4712         estimate D2E/DX2                !
 ! A68   A(29,35,37)           109.4712         estimate D2E/DX2                !
 ! A69   A(29,35,41)           109.4712         estimate D2E/DX2                !
 ! A70   A(36,35,37)           109.4712         estimate D2E/DX2                !
 ! A71   A(36,35,41)           109.4713         estimate D2E/DX2                !
 ! A72   A(37,35,41)           109.4712         estimate D2E/DX2                !
 ! A73   A(32,38,39)           109.4712         estimate D2E/DX2                !
 ! A74   A(32,38,40)           109.4712         estimate D2E/DX2                !
 ! A75   A(32,38,42)           109.4712         estimate D2E/DX2                !
 ! A76   A(39,38,40)           109.4713         estimate D2E/DX2                !
 ! A77   A(39,38,42)           109.4712         estimate D2E/DX2                !
 ! A78   A(40,38,42)           109.4712         estimate D2E/DX2                !
 ! A79   A(35,41,46)           109.5            estimate D2E/DX2                !
 ! A80   A(38,42,43)           109.5            estimate D2E/DX2                !
 ! A81   A(42,43,44)           109.4712         estimate D2E/DX2                !
 ! A82   A(42,43,45)           109.4712         estimate D2E/DX2                !
 ! A83   A(42,43,57)           109.4712         estimate D2E/DX2                !
 ! A84   A(44,43,45)           109.4712         estimate D2E/DX2                !
 ! A85   A(44,43,57)           109.4713         estimate D2E/DX2                !
 ! A86   A(45,43,57)           109.4712         estimate D2E/DX2                !
 ! A87   A(41,46,47)           109.4712         estimate D2E/DX2                !
 ! A88   A(41,46,48)           109.4712         estimate D2E/DX2                !
 ! A89   A(41,46,49)           109.4712         estimate D2E/DX2                !
 ! A90   A(47,46,48)           109.4712         estimate D2E/DX2                !
 ! A91   A(47,46,49)           109.4713         estimate D2E/DX2                !
 ! A92   A(48,46,49)           109.4712         estimate D2E/DX2                !
 ! A93   A(46,49,50)           109.4712         estimate D2E/DX2                !
 ! A94   A(46,49,51)           109.4712         estimate D2E/DX2                !
 ! A95   A(46,49,52)           109.4712         estimate D2E/DX2                !
 ! A96   A(50,49,51)           109.4712         estimate D2E/DX2                !
 ! A97   A(50,49,52)           109.4713         estimate D2E/DX2                !
 ! A98   A(51,49,52)           109.4712         estimate D2E/DX2                !
 ! A99   A(49,52,53)           109.5            estimate D2E/DX2                !
 ! A100  A(52,53,54)           109.4712         estimate D2E/DX2                !
 ! A101  A(52,53,55)           109.4712         estimate D2E/DX2                !
 ! A102  A(52,53,56)           109.4712         estimate D2E/DX2                !
 ! A103  A(54,53,55)           109.4713         estimate D2E/DX2                !
 ! A104  A(54,53,56)           109.4712         estimate D2E/DX2                !
 ! A105  A(55,53,56)           109.4712         estimate D2E/DX2                !
 ! A106  A(43,57,58)           109.4712         estimate D2E/DX2                !
 ! A107  A(43,57,59)           109.4712         estimate D2E/DX2                !
 ! A108  A(43,57,60)           109.4712         estimate D2E/DX2                !
 ! A109  A(58,57,59)           109.4712         estimate D2E/DX2                !
 ! A110  A(58,57,60)           109.4713         estimate D2E/DX2                !
 ! A111  A(59,57,60)           109.4712         estimate D2E/DX2                !
 ! A112  A(57,60,61)           109.5            estimate D2E/DX2                !
 ! A113  A(60,61,62)           109.4712         estimate D2E/DX2                !
 ! A114  A(60,61,63)           109.4712         estimate D2E/DX2                !
 ! A115  A(60,61,64)           109.4712         estimate D2E/DX2                !
 ! A116  A(62,61,63)           109.4713         estimate D2E/DX2                !
 ! A117  A(62,61,64)           109.4712         estimate D2E/DX2                !
 ! A118  A(63,61,64)           109.4712         estimate D2E/DX2                !
 ! D1    D(5,1,2,3)             -0.0001         estimate D2E/DX2                !
 ! D2    D(5,1,2,6)           -179.9996         estimate D2E/DX2                !
 ! D3    D(8,1,2,3)            179.9999         estimate D2E/DX2                !
 ! D4    D(8,1,2,6)              0.0004         estimate D2E/DX2                !
 ! D5    D(2,1,5,4)              0.0            estimate D2E/DX2                !
 ! D6    D(8,1,5,4)           -179.9999         estimate D2E/DX2                !
 ! D7    D(2,1,8,9)            179.9995         estimate D2E/DX2                !
 ! D8    D(2,1,8,12)            -0.0003         estimate D2E/DX2                !
 ! D9    D(5,1,8,9)             -0.0005         estimate D2E/DX2                !
 ! D10   D(5,1,8,12)           179.9997         estimate D2E/DX2                !
 ! D11   D(1,2,3,4)              0.0001         estimate D2E/DX2                !
 ! D12   D(1,2,3,7)           -179.9999         estimate D2E/DX2                !
 ! D13   D(6,2,3,4)            179.9996         estimate D2E/DX2                !
 ! D14   D(6,2,3,7)             -0.0004         estimate D2E/DX2                !
 ! D15   D(1,2,6,15)          -179.9951         estimate D2E/DX2                !
 ! D16   D(3,2,6,15)             0.0054         estimate D2E/DX2                !
 ! D17   D(2,3,4,5)              0.0            estimate D2E/DX2                !
 ! D18   D(2,3,4,65)          -180.0            estimate D2E/DX2                !
 ! D19   D(7,3,4,5)            180.0            estimate D2E/DX2                !
 ! D20   D(7,3,4,65)             0.0            estimate D2E/DX2                !
 ! D21   D(3,4,5,1)              0.0            estimate D2E/DX2                !
 ! D22   D(65,4,5,1)           180.0            estimate D2E/DX2                !
 ! D23   D(2,6,15,16)           60.5747         estimate D2E/DX2                !
 ! D24   D(2,6,15,17)          -60.5808         estimate D2E/DX2                !
 ! D25   D(2,6,15,21)          179.9971         estimate D2E/DX2                !
 ! D26   D(1,8,9,10)          -179.9995         estimate D2E/DX2                !
 ! D27   D(1,8,9,13)            -0.0003         estimate D2E/DX2                !
 ! D28   D(12,8,9,10)            0.0003         estimate D2E/DX2                !
 ! D29   D(12,8,9,13)          179.9995         estimate D2E/DX2                !
 ! D30   D(1,8,12,11)          179.9996         estimate D2E/DX2                !
 ! D31   D(9,8,12,11)           -0.0002         estimate D2E/DX2                !
 ! D32   D(8,9,10,11)           -0.0003         estimate D2E/DX2                !
 ! D33   D(8,9,10,14)          179.999          estimate D2E/DX2                !
 ! D34   D(13,9,10,11)        -179.9995         estimate D2E/DX2                !
 ! D35   D(13,9,10,14)          -0.0001         estimate D2E/DX2                !
 ! D36   D(8,9,13,18)          179.9964         estimate D2E/DX2                !
 ! D37   D(10,9,13,18)          -0.0045         estimate D2E/DX2                !
 ! D38   D(9,10,11,12)           0.0002         estimate D2E/DX2                !
 ! D39   D(9,10,11,66)        -179.9998         estimate D2E/DX2                !
 ! D40   D(14,10,11,12)       -179.9992         estimate D2E/DX2                !
 ! D41   D(14,10,11,66)          0.0008         estimate D2E/DX2                !
 ! D42   D(10,11,12,8)           0.0            estimate D2E/DX2                !
 ! D43   D(66,11,12,8)         180.0            estimate D2E/DX2                !
 ! D44   D(9,13,18,19)         -60.5562         estimate D2E/DX2                !
 ! D45   D(9,13,18,20)          60.5608         estimate D2E/DX2                !
 ! D46   D(9,13,18,24)        -179.9973         estimate D2E/DX2                !
 ! D47   D(6,15,21,22)         -59.9806         estimate D2E/DX2                !
 ! D48   D(6,15,21,23)          59.9793         estimate D2E/DX2                !
 ! D49   D(6,15,21,27)         179.9993         estimate D2E/DX2                !
 ! D50   D(16,15,21,22)         59.5699         estimate D2E/DX2                !
 ! D51   D(16,15,21,23)        179.5299         estimate D2E/DX2                !
 ! D52   D(16,15,21,27)        -60.4501         estimate D2E/DX2                !
 ! D53   D(17,15,21,22)       -179.531          estimate D2E/DX2                !
 ! D54   D(17,15,21,23)        -59.5711         estimate D2E/DX2                !
 ! D55   D(17,15,21,27)         60.4489         estimate D2E/DX2                !
 ! D56   D(13,18,24,25)        -59.9892         estimate D2E/DX2                !
 ! D57   D(13,18,24,26)         59.9826         estimate D2E/DX2                !
 ! D58   D(13,18,24,28)        179.9967         estimate D2E/DX2                !
 ! D59   D(19,18,24,25)       -179.5401         estimate D2E/DX2                !
 ! D60   D(19,18,24,26)        -59.5683         estimate D2E/DX2                !
 ! D61   D(19,18,24,28)         60.4458         estimate D2E/DX2                !
 ! D62   D(20,18,24,25)         59.5618         estimate D2E/DX2                !
 ! D63   D(20,18,24,26)        179.5336         estimate D2E/DX2                !
 ! D64   D(20,18,24,28)        -60.4523         estimate D2E/DX2                !
 ! D65   D(15,21,27,29)        179.9992         estimate D2E/DX2                !
 ! D66   D(22,21,27,29)         60.4714         estimate D2E/DX2                !
 ! D67   D(23,21,27,29)        -60.4732         estimate D2E/DX2                !
 ! D68   D(18,24,28,32)        179.9959         estimate D2E/DX2                !
 ! D69   D(25,24,28,32)         60.4483         estimate D2E/DX2                !
 ! D70   D(26,24,28,32)        -60.457          estimate D2E/DX2                !
 ! D71   D(21,27,29,30)        -60.9337         estimate D2E/DX2                !
 ! D72   D(21,27,29,31)         60.934          estimate D2E/DX2                !
 ! D73   D(21,27,29,35)       -179.9999         estimate D2E/DX2                !
 ! D74   D(24,28,32,33)         60.9406         estimate D2E/DX2                !
 ! D75   D(24,28,32,34)        -60.9385         estimate D2E/DX2                !
 ! D76   D(24,28,32,38)       -179.999          estimate D2E/DX2                !
 ! D77   D(27,29,35,36)         60.0005         estimate D2E/DX2                !
 ! D78   D(27,29,35,37)        -59.9995         estimate D2E/DX2                !
 ! D79   D(27,29,35,41)       -179.9995         estimate D2E/DX2                !
 ! D80   D(30,29,35,36)        -60.2066         estimate D2E/DX2                !
 ! D81   D(30,29,35,37)        179.7934         estimate D2E/DX2                !
 ! D82   D(30,29,35,41)         59.7934         estimate D2E/DX2                !
 ! D83   D(31,29,35,36)       -179.7925         estimate D2E/DX2                !
 ! D84   D(31,29,35,37)         60.2075         estimate D2E/DX2                !
 ! D85   D(31,29,35,41)        -59.7925         estimate D2E/DX2                !
 ! D86   D(28,32,38,39)        -60.001          estimate D2E/DX2                !
 ! D87   D(28,32,38,40)         59.999          estimate D2E/DX2                !
 ! D88   D(28,32,38,42)        179.999          estimate D2E/DX2                !
 ! D89   D(33,32,38,39)         60.2197         estimate D2E/DX2                !
 ! D90   D(33,32,38,40)       -179.7803         estimate D2E/DX2                !
 ! D91   D(33,32,38,42)        -59.7803         estimate D2E/DX2                !
 ! D92   D(34,32,38,39)        179.7783         estimate D2E/DX2                !
 ! D93   D(34,32,38,40)        -60.2217         estimate D2E/DX2                !
 ! D94   D(34,32,38,42)         59.7783         estimate D2E/DX2                !
 ! D95   D(29,35,41,46)        179.999          estimate D2E/DX2                !
 ! D96   D(36,35,41,46)        -60.001          estimate D2E/DX2                !
 ! D97   D(37,35,41,46)         59.999          estimate D2E/DX2                !
 ! D98   D(32,38,42,43)       -179.9988         estimate D2E/DX2                !
 ! D99   D(39,38,42,43)         60.0012         estimate D2E/DX2                !
 ! D100  D(40,38,42,43)        -59.9988         estimate D2E/DX2                !
 ! D101  D(35,41,46,47)         59.8932         estimate D2E/DX2                !
 ! D102  D(35,41,46,48)        -60.1068         estimate D2E/DX2                !
 ! D103  D(35,41,46,49)        179.8932         estimate D2E/DX2                !
 ! D104  D(38,42,43,44)         59.9986         estimate D2E/DX2                !
 ! D105  D(38,42,43,45)        -60.0014         estimate D2E/DX2                !
 ! D106  D(38,42,43,57)        179.9986         estimate D2E/DX2                !
 ! D107  D(42,43,57,58)        -60.0004         estimate D2E/DX2                !
 ! D108  D(42,43,57,59)         59.9996         estimate D2E/DX2                !
 ! D109  D(42,43,57,60)        179.9996         estimate D2E/DX2                !
 ! D110  D(44,43,57,58)         59.9996         estimate D2E/DX2                !
 ! D111  D(44,43,57,59)        179.9996         estimate D2E/DX2                !
 ! D112  D(44,43,57,60)        -60.0005         estimate D2E/DX2                !
 ! D113  D(45,43,57,58)        179.9996         estimate D2E/DX2                !
 ! D114  D(45,43,57,59)        -60.0004         estimate D2E/DX2                !
 ! D115  D(45,43,57,60)         59.9996         estimate D2E/DX2                !
 ! D116  D(41,46,49,50)         59.9834         estimate D2E/DX2                !
 ! D117  D(41,46,49,51)        -60.0166         estimate D2E/DX2                !
 ! D118  D(41,46,49,52)        179.9834         estimate D2E/DX2                !
 ! D119  D(47,46,49,50)        179.9834         estimate D2E/DX2                !
 ! D120  D(47,46,49,51)         59.9834         estimate D2E/DX2                !
 ! D121  D(47,46,49,52)        -60.0166         estimate D2E/DX2                !
 ! D122  D(48,46,49,50)        -60.0166         estimate D2E/DX2                !
 ! D123  D(48,46,49,51)        179.9834         estimate D2E/DX2                !
 ! D124  D(48,46,49,52)         59.9834         estimate D2E/DX2                !
 ! D125  D(46,49,52,53)       -179.9666         estimate D2E/DX2                !
 ! D126  D(50,49,52,53)        -59.9666         estimate D2E/DX2                !
 ! D127  D(51,49,52,53)         60.0334         estimate D2E/DX2                !
 ! D128  D(49,52,53,54)         60.0097         estimate D2E/DX2                !
 ! D129  D(49,52,53,55)       -179.9903         estimate D2E/DX2                !
 ! D130  D(49,52,53,56)        -59.9903         estimate D2E/DX2                !
 ! D131  D(43,57,60,61)       -179.9991         estimate D2E/DX2                !
 ! D132  D(58,57,60,61)         60.0009         estimate D2E/DX2                !
 ! D133  D(59,57,60,61)        -59.9991         estimate D2E/DX2                !
 ! D134  D(57,60,61,62)       -179.9998         estimate D2E/DX2                !
 ! D135  D(57,60,61,63)        -59.9998         estimate D2E/DX2                !
 ! D136  D(57,60,61,64)         60.0002         estimate D2E/DX2                !
 --------------------------------------------------------------------------------
 Trust Radius=3.00D-01 FncErr=1.00D-07 GrdErr=1.00D-06 EigMax=2.50D+02 EigMin=1.00D-04
 Number of steps in this run=    331 maximum allowed number of steps=    396.
 GradGradGradGradGradGradGradGradGradGradGradGradGradGradGradGradGradGrad

 Leave Link  103 at Mon Jan 13 11:44:26 2020, MaxMem=  6710886400 cpu:               0.9 elap:               0.1
 (Enter /apps/gaussian/g16-a03/l202.exe)
 Stoichiometry    C22H34O8S2
 Framework group  C1[X(C22H34O8S2)]
 Deg. of freedom   192
 Full point group                 C1      NOp   1
 Largest Abelian subgroup         C1      NOp   1
 Largest concise Abelian subgroup C1      NOp   1
                         Standard orientation:                         
 ---------------------------------------------------------------------
 Center     Atomic      Atomic             Coordinates (Angstroms)
 Number     Number       Type             X           Y           Z
 ---------------------------------------------------------------------
      1          6           0        0.166736    0.698811   -0.000414
      2          6           0        1.416099    1.293639   -0.000593
      3          6           0        1.420970    2.724017   -0.000696
      4          6           0        0.172958    3.266015   -0.000597
      5         16           0       -1.116157    2.012762   -0.000366
      6          8           0        2.548236    0.485486   -0.000669
      7          1           0        2.320373    3.318988   -0.000838
      8          6           0       -0.170068   -0.686727   -0.000280
      9          6           0       -1.417595   -1.287712   -0.000092
     10          6           0       -1.426090   -2.707014    0.000017
     11          6           0       -0.176297   -3.282396   -0.000089
     12         16           0        1.117174   -1.993207   -0.000337
     13          8           0       -2.550417   -0.480067   -0.000007
     14          1           0       -2.330811   -3.294236    0.000180
     15          6           0        3.866861    1.108384   -0.000749
     16          1           0        3.996219    1.725288    0.890256
     17          1           0        3.996146    1.725212   -0.891817
     18          6           0       -3.867322   -1.106297    0.000111
     19          1           0       -3.994856   -1.723787   -0.890783
     20          1           0       -3.994734   -1.723699    0.891083
     21          6           0        4.869727   -0.027840   -0.000744
     22          1           0        4.734586   -0.651344    0.888811
     23          1           0        4.734497   -0.651429   -0.890226
     24          6           0       -4.872963    0.027294    0.000113
     25          1           0       -4.739637    0.651272    0.889526
     26          1           0       -4.739665    0.651236   -0.889329
     27          8           0        6.176519    0.598638   -0.000840
     28          8           0       -6.178948   -0.602219    0.000149
     29          6           0        7.278914   -0.342344   -0.000830
     30          1           0        7.258528   -0.976828    0.891379
     31          1           0        7.258453   -0.976934   -0.892961
     32          6           0       -7.282635    0.336665    0.000250
     33          1           0       -7.263499    0.971312   -0.891980
     34          1           0       -7.263386    0.971252    0.892520
     35          6           0        8.566669    0.502219   -0.000935
     36          1           0        8.588333    1.119651    0.872683
     37          1           0        8.588252    1.119559   -0.874620
     38          6           0       -8.569436   -0.509351    0.000301
     39          1           0       -8.590425   -1.126718   -0.873379
     40          1           0       -8.590299   -1.126804    0.873924
     41          8           0        9.704645   -0.363755   -0.000942
     42          8           0       -9.708389    0.355337    0.000425
     43          6           0      -10.903670   -0.429649    0.000501
     44          1           0      -10.924821   -1.047094    0.874123
     45          1           0      -10.924992   -1.047004   -0.873180
     46          6           0       10.900812    0.419880   -0.001063
     47          1           0       10.921903    1.038676    0.871604
     48          1           0       10.923589    1.035834   -0.875695
     49          6           0       12.125855   -0.513321    0.001636
     50          1           0       12.104609   -1.132317   -0.870884
     51          1           0       12.103231   -1.129073    0.876415
     52          8           0       13.322022    0.270314    0.001126
     53          6           0       14.459997   -0.595659    0.002845
     54          1           0       14.438873   -1.214122   -0.870056
     55          1           0       15.354737   -0.008853    0.002634
     56          1           0       14.437874   -1.211967    0.877245
     57          6           0      -12.129768    0.502169    0.000669
     58          1           0      -12.108449    1.119518    0.874355
     59          1           0      -12.108613    1.119620   -0.872948
     60          8           0      -13.325049   -0.282817    0.000735
     61          6           0      -14.464002    0.581871    0.000871
     62          1           0      -15.358078   -0.005945    0.000922
     63          1           0      -14.443000    1.199244    0.874547
     64          1           0      -14.443152    1.199319   -0.872756
     65          1           0        0.046910    4.308422   -0.000658
     66          1           0        0.291566   -4.222398   -0.000076
 ---------------------------------------------------------------------
 Rotational constants (GHZ):           0.5355820           0.0175785           0.0170451
 Leave Link  202 at Mon Jan 13 11:44:26 2020, MaxMem=  6710886400 cpu:               0.0 elap:               0.0
 (Enter /apps/gaussian/g16-a03/l301.exe)
 Standard basis: 6-311G(d,p) (5D, 7F)
 Ernie: Thresh=  0.10000D-02 Tol=  0.10000D-05 Strict=F.
 There are   828 symmetry adapted cartesian basis functions of A   symmetry.
 There are   796 symmetry adapted basis functions of A   symmetry.
   796 basis functions,  1324 primitive gaussians,   828 cartesian basis functions
   131 alpha electrons      131 beta electrons
       nuclear repulsion energy      3185.1603219793 Hartrees.
 IExCor=  402 DFT=T Ex+Corr=B3LYP ExCW=0 ScaHFX=  0.200000
 ScaDFX=  0.800000  0.720000  1.000000  0.810000 ScalE2=  1.000000  1.000000
 IRadAn=      5 IRanWt=     -1 IRanGd=            0 ICorTp=0 IEmpDi=  4
 NAtoms=   66 NActive=   66 NUniq=   66 SFac= 1.00D+00 NAtFMM=   60 NAOKFM=T Big=T
 Integral buffers will be    131072 words long.
 Raffenetti 2 integral format.
 Two-electron integral symmetry is turned on.
 Leave Link  301 at Mon Jan 13 11:44:26 2020, MaxMem=  6710886400 cpu:               1.1 elap:               0.1
 (Enter /apps/gaussian/g16-a03/l302.exe)
 NPDir=0 NMtPBC=     1 NCelOv=     1 NCel=       1 NClECP=     1 NCelD=      1
         NCelK=      1 NCelE2=     1 NClLst=     1 CellRange=     0.0.
 One-electron integrals computed using PRISM.
 One-electron integral symmetry used in STVInt
 NBasis=   796 RedAO= T EigKep=  3.04D-04  NBF=   796
 NBsUse=   796 1.00D-06 EigRej= -1.00D+00 NBFU=   796
 Precomputing XC quadrature grid using
 IXCGrd= 4 IRadAn=           5 IRanWt=          -1 IRanGd=           0 AccXCQ= 0.00D+00.
 Generated NRdTot=       0 NPtTot=           0 NUsed=           0 NTot=          32
 NSgBfM=   575   565   575   575   575 MxSgAt=    66 MxSgA2=    66.
 Leave Link  302 at Mon Jan 13 11:44:29 2020, MaxMem=  6710886400 cpu:              41.6 elap:               2.8
 (Enter /apps/gaussian/g16-a03/l303.exe)
 DipDrv:  MaxL=1.
 Leave Link  303 at Mon Jan 13 11:44:30 2020, MaxMem=  6710886400 cpu:               3.0 elap:               0.3
 (Enter /apps/gaussian/g16-a03/l401.exe)
 ExpMin= 7.71D-02 ExpMax= 9.34D+04 ExpMxC= 3.17D+03 IAcc=3 IRadAn=         5 AccDes= 0.00D+00
 Harris functional with IExCor=  402 and IRadAn=       5 diagonalized for initial guess.
 HarFok:  IExCor=  402 AccDes= 0.00D+00 IRadAn=         5 IDoV= 1 UseB2=F ITyADJ=14
 ICtDFT=  3500011 ScaDFX=  1.000000  1.000000  1.000000  1.000000
 FoFCou: FMM=F IPFlag=           0 FMFlag=      100000 FMFlg1=        2001
         NFxFlg=           0 DoJE=T BraDBF=F KetDBF=T FulRan=T
         wScrn=  0.000000 ICntrl=       500 IOpCl=  0 I1Cent=   200000004 NGrid=           0
         NMat0=    1 NMatS0=      1 NMatT0=    0 NMatD0=    1 NMtDS0=    0 NMtDT0=    0
 Petite list used in FoFCou.
 Harris En= -2257.22974535032    
 JPrj=0 DoOrth=F DoCkMO=F.
 Leave Link  401 at Mon Jan 13 11:44:37 2020, MaxMem=  6710886400 cpu:             118.9 elap:               7.5
 (Enter /apps/gaussian/g16-a03/l502.exe)
 Integral symmetry usage will be decided dynamically.
 Closed shell SCF:
 Using DIIS extrapolation, IDIIS=  1040.
 NGot=  6710886400 LenX=  6709493692 LenY=  6708807280
 Requested convergence on RMS density matrix=1.00D-08 within 128 cycles.
 Requested convergence on MAX density matrix=1.00D-06.
 Requested convergence on             energy=1.00D-06.
 No special actions if energy rises.
 Fock matrices will be formed incrementally for  20 cycles.
 Integral accuracy reduced to 1.0D-05 until final iterations.

 Cycle   1  Pass 0  IDiag  1:
 FoFJK:  IHMeth= 1 ICntrl=       0 DoSepK=F KAlg= 0 I1Cent=           0 FoldK=F
 IRaf= 490000000 NMat=       1 IRICut=       1 DoRegI=T DoRafI=F ISym2E= 0 IDoP0=0 IntGTp=1.
 FoFCou: FMM=T IPFlag=           0 FMFlag=      100000 FMFlg1=        2001
         NFxFlg=           0 DoJE=F BraDBF=F KetDBF=F FulRan=T
         wScrn=  0.000000 ICntrl=         0 IOpCl=  0 I1Cent=           0 NGrid=           0
         NMat0=    1 NMatS0=      1 NMatT0=    0 NMatD0=    1 NMtDS0=    0 NMtDT0=    0
 Symmetry not used in FoFCou.
 FMM levels:  10  Number of levels for PrismC:   9
 E= -2256.44687647401    
 DIIS: error= 3.70D-02 at cycle   1 NSaved=   1.
 NSaved= 1 IEnMin= 1 EnMin= -2256.44687647401     IErMin= 1 ErrMin= 3.70D-02
 ErrMax= 3.70D-02  0.00D+00 EMaxC= 1.00D-01 BMatC= 9.22D-01 BMatP= 9.22D-01
 IDIUse=3 WtCom= 6.30D-01 WtEn= 3.70D-01
 Coeff-Com:  0.100D+01
 Coeff-En:   0.100D+01
 Coeff:      0.100D+01
 Gap=     0.084 Goal=   None    Shift=    0.000
 GapD=    0.084 DampG=0.500 DampE=0.500 DampFc=0.2500 IDamp=-1.
 Damping current iteration by 2.50D-01
 RMSDP=2.30D-03 MaxDP=1.32D-01              OVMax= 2.31D-01

 Cycle   2  Pass 0  IDiag  1:
 RMSU=  5.74D-04    CP:  9.95D-01
 E= -2256.74044527359     Delta-E=       -0.293568799573 Rises=F Damp=T
 DIIS: error= 1.68D-02 at cycle   2 NSaved=   2.
 NSaved= 2 IEnMin= 2 EnMin= -2256.74044527359     IErMin= 2 ErrMin= 1.68D-02
 ErrMax= 1.68D-02  0.00D+00 EMaxC= 1.00D-01 BMatC= 2.41D-01 BMatP= 9.22D-01
 IDIUse=3 WtCom= 8.32D-01 WtEn= 1.68D-01
 Coeff-Com: -0.834D+00 0.183D+01
 Coeff-En:   0.000D+00 0.100D+01
 Coeff:     -0.694D+00 0.169D+01
 Gap=     0.193 Goal=   None    Shift=    0.000
 RMSDP=5.91D-04 MaxDP=3.27D-02 DE=-2.94D-01 OVMax= 2.45D-01

 Cycle   3  Pass 0  IDiag  1:
 RMSU=  5.46D-04    CP:  9.92D-01  1.39D+00
 E= -2257.22369930909     Delta-E=       -0.483254035501 Rises=F Damp=F
 DIIS: error= 7.22D-03 at cycle   3 NSaved=   3.
 NSaved= 3 IEnMin= 3 EnMin= -2257.22369930909     IErMin= 3 ErrMin= 7.22D-03
 ErrMax= 7.22D-03  0.00D+00 EMaxC= 1.00D-01 BMatC= 2.20D-02 BMatP= 2.41D-01
 IDIUse=3 WtCom= 9.28D-01 WtEn= 7.22D-02
 Coeff-Com: -0.306D+00 0.642D+00 0.664D+00
 Coeff-En:   0.000D+00 0.000D+00 0.100D+01
 Coeff:     -0.284D+00 0.596D+00 0.688D+00
 Gap=     0.134 Goal=   None    Shift=    0.000
 RMSDP=3.13D-04 MaxDP=3.56D-02 DE=-4.83D-01 OVMax= 6.49D-02

 Cycle   4  Pass 0  IDiag  1:
 RMSU=  1.83D-04    CP:  9.92D-01  1.53D+00  5.61D-01
 E= -2257.23665644882     Delta-E=       -0.012957139732 Rises=F Damp=F
 DIIS: error= 5.67D-03 at cycle   4 NSaved=   4.
 NSaved= 4 IEnMin= 4 EnMin= -2257.23665644882     IErMin= 4 ErrMin= 5.67D-03
 ErrMax= 5.67D-03  0.00D+00 EMaxC= 1.00D-01 BMatC= 9.54D-03 BMatP= 2.20D-02
 IDIUse=3 WtCom= 9.43D-01 WtEn= 5.67D-02
 Coeff-Com: -0.646D-01 0.137D+00 0.401D+00 0.527D+00
 Coeff-En:   0.000D+00 0.000D+00 0.304D+00 0.696D+00
 Coeff:     -0.610D-01 0.129D+00 0.396D+00 0.536D+00
 Gap=     0.136 Goal=   None    Shift=    0.000
 RMSDP=1.09D-04 MaxDP=8.75D-03 DE=-1.30D-02 OVMax= 2.13D-02

 Cycle   5  Pass 0  IDiag  1:
 RMSU=  5.86D-05    CP:  9.91D-01  1.50D+00  6.85D-01  6.86D-01
 E= -2257.24510330893     Delta-E=       -0.008446860106 Rises=F Damp=F
 DIIS: error= 1.17D-03 at cycle   5 NSaved=   5.
 NSaved= 5 IEnMin= 5 EnMin= -2257.24510330893     IErMin= 5 ErrMin= 1.17D-03
 ErrMax= 1.17D-03  0.00D+00 EMaxC= 1.00D-01 BMatC= 5.42D-04 BMatP= 9.54D-03
 IDIUse=3 WtCom= 9.88D-01 WtEn= 1.17D-02
 Coeff-Com: -0.822D-02 0.212D-01 0.167D+00 0.281D+00 0.539D+00
 Coeff-En:   0.000D+00 0.000D+00 0.000D+00 0.000D+00 0.100D+01
 Coeff:     -0.812D-02 0.209D-01 0.165D+00 0.277D+00 0.545D+00
 Gap=     0.136 Goal=   None    Shift=    0.000
 RMSDP=2.88D-05 MaxDP=3.21D-03 DE=-8.45D-03 OVMax= 6.42D-03

 Cycle   6  Pass 0  IDiag  1:
 RMSU=  1.87D-05    CP:  9.91D-01  1.49D+00  6.95D-01  7.06D-01  6.44D-01
 E= -2257.24550632023     Delta-E=       -0.000403011302 Rises=F Damp=F
 DIIS: error= 6.09D-04 at cycle   6 NSaved=   6.
 NSaved= 6 IEnMin= 6 EnMin= -2257.24550632023     IErMin= 6 ErrMin= 6.09D-04
 ErrMax= 6.09D-04  0.00D+00 EMaxC= 1.00D-01 BMatC= 7.34D-05 BMatP= 5.42D-04
 IDIUse=3 WtCom= 9.94D-01 WtEn= 6.09D-03
 Coeff-Com:  0.464D-02-0.697D-02 0.448D-01 0.890D-01 0.310D+00 0.558D+00
 Coeff-En:   0.000D+00 0.000D+00 0.000D+00 0.000D+00 0.109D+00 0.891D+00
 Coeff:      0.461D-02-0.693D-02 0.445D-01 0.885D-01 0.309D+00 0.560D+00
 Gap=     0.137 Goal=   None    Shift=    0.000
 RMSDP=1.16D-05 MaxDP=8.62D-04 DE=-4.03D-04 OVMax= 3.37D-03

 Cycle   7  Pass 0  IDiag  1:
 RMSU=  6.54D-06    CP:  9.91D-01  1.49D+00  7.00D-01  7.01D-01  6.90D-01
                    CP:  5.63D-01
 E= -2257.24556948141     Delta-E=       -0.000063161184 Rises=F Damp=F
 DIIS: error= 2.80D-04 at cycle   7 NSaved=   7.
 NSaved= 7 IEnMin= 7 EnMin= -2257.24556948141     IErMin= 7 ErrMin= 2.80D-04
 ErrMax= 2.80D-04  0.00D+00 EMaxC= 1.00D-01 BMatC= 7.72D-06 BMatP= 7.34D-05
 IDIUse=3 WtCom= 9.97D-01 WtEn= 2.80D-03
 Coeff-Com:  0.344D-02-0.551D-02 0.200D-01 0.410D-01 0.163D+00 0.345D+00
 Coeff-Com:  0.433D+00
 Coeff-En:   0.000D+00 0.000D+00 0.000D+00 0.000D+00 0.000D+00 0.196D-01
 Coeff-En:   0.980D+00
 Coeff:      0.343D-02-0.550D-02 0.199D-01 0.409D-01 0.162D+00 0.344D+00
 Coeff:      0.435D+00
 Gap=     0.137 Goal=   None    Shift=    0.000
 RMSDP=4.69D-06 MaxDP=3.25D-04 DE=-6.32D-05 OVMax= 1.38D-03

 Initial convergence to 1.0D-05 achieved.  Increase integral accuracy.
 Cycle   8  Pass 1  IDiag  1:
 E= -2257.24551560139     Delta-E=        0.000053880025 Rises=F Damp=F
 DIIS: error= 9.90D-05 at cycle   1 NSaved=   1.
 NSaved= 1 IEnMin= 1 EnMin= -2257.24551560139     IErMin= 1 ErrMin= 9.90D-05
 ErrMax= 9.90D-05  0.00D+00 EMaxC= 1.00D-01 BMatC= 2.37D-06 BMatP= 2.37D-06
 IDIUse=1 WtCom= 1.00D+00 WtEn= 0.00D+00
 Coeff-Com:  0.100D+01
 Coeff:      0.100D+01
 Gap=     0.137 Goal=   None    Shift=    0.000
 RMSDP=4.69D-06 MaxDP=3.25D-04 DE= 5.39D-05 OVMax= 1.51D-03

 Cycle   9  Pass 1  IDiag  1:
 RMSU=  1.83D-05    CP:  1.00D+00
 E= -2257.24551054237     Delta-E=        0.000005059020 Rises=F Damp=F
 DIIS: error= 2.65D-04 at cycle   2 NSaved=   2.
 NSaved= 2 IEnMin= 1 EnMin= -2257.24551560139     IErMin= 1 ErrMin= 9.90D-05
 ErrMax= 2.65D-04  0.00D+00 EMaxC= 1.00D-01 BMatC= 7.09D-06 BMatP= 2.37D-06
 IDIUse=3 WtCom= 3.81D-01 WtEn= 6.19D-01
 Coeff-Com:  0.655D+00 0.345D+00
 Coeff-En:   0.736D+00 0.264D+00
 Coeff:      0.705D+00 0.295D+00
 Gap=     0.137 Goal=   None    Shift=    0.000
 RMSDP=3.51D-06 MaxDP=2.42D-04 DE= 5.06D-06 OVMax= 1.07D-03

 Cycle  10  Pass 1  IDiag  1:
 RMSU=  3.44D-06    CP:  1.00D+00  9.63D-01
 E= -2257.24551812338     Delta-E=       -0.000007581012 Rises=F Damp=F
 DIIS: error= 1.51D-05 at cycle   3 NSaved=   3.
 NSaved= 3 IEnMin= 3 EnMin= -2257.24551812338     IErMin= 3 ErrMin= 1.51D-05
 ErrMax= 1.51D-05  0.00D+00 EMaxC= 1.00D-01 BMatC= 3.77D-08 BMatP= 2.37D-06
 IDIUse=1 WtCom= 1.00D+00 WtEn= 0.00D+00
 Coeff-Com:  0.521D-01 0.448D-01 0.903D+00
 Coeff:      0.521D-01 0.448D-01 0.903D+00
 Gap=     0.137 Goal=   None    Shift=    0.000
 RMSDP=4.75D-07 MaxDP=4.23D-05 DE=-7.58D-06 OVMax= 1.26D-04

 Cycle  11  Pass 1  IDiag  1:
 RMSU=  4.28D-07    CP:  1.00D+00  9.72D-01  9.67D-01
 E= -2257.24551809960     Delta-E=        0.000000023778 Rises=F Damp=F
 DIIS: error= 1.67D-05 at cycle   4 NSaved=   4.
 NSaved= 4 IEnMin= 3 EnMin= -2257.24551812338     IErMin= 3 ErrMin= 1.51D-05
 ErrMax= 1.67D-05  0.00D+00 EMaxC= 1.00D-01 BMatC= 6.70D-08 BMatP= 3.77D-08
 IDIUse=1 WtCom= 1.00D+00 WtEn= 0.00D+00
 Coeff-Com: -0.179D-02 0.892D-02 0.579D+00 0.414D+00
 Coeff:     -0.179D-02 0.892D-02 0.579D+00 0.414D+00
 Gap=     0.137 Goal=   None    Shift=    0.000
 RMSDP=2.90D-07 MaxDP=2.77D-05 DE= 2.38D-08 OVMax= 6.91D-05

 Cycle  12  Pass 1  IDiag  1:
 RMSU=  1.31D-07    CP:  1.00D+00  9.73D-01  9.81D-01  4.11D-01
 E= -2257.24551816095     Delta-E=       -0.000000061350 Rises=F Damp=F
 DIIS: error= 2.18D-06 at cycle   5 NSaved=   5.
 NSaved= 5 IEnMin= 5 EnMin= -2257.24551816095     IErMin= 5 ErrMin= 2.18D-06
 ErrMax= 2.18D-06  0.00D+00 EMaxC= 1.00D-01 BMatC= 1.64D-09 BMatP= 3.77D-08
 IDIUse=1 WtCom= 1.00D+00 WtEn= 0.00D+00
 Coeff-Com: -0.278D-02 0.314D-02 0.306D+00 0.236D+00 0.458D+00
 Coeff:     -0.278D-02 0.314D-02 0.306D+00 0.236D+00 0.458D+00
 Gap=     0.137 Goal=   None    Shift=    0.000
 RMSDP=7.16D-08 MaxDP=5.48D-06 DE=-6.13D-08 OVMax= 2.49D-05

 Cycle  13  Pass 1  IDiag  1:
 RMSU=  5.27D-08    CP:  1.00D+00  9.73D-01  9.83D-01  4.60D-01  6.71D-01
 E= -2257.24551816238     Delta-E=       -0.000000001429 Rises=F Damp=F
 DIIS: error= 1.02D-06 at cycle   6 NSaved=   6.
 NSaved= 6 IEnMin= 6 EnMin= -2257.24551816238     IErMin= 6 ErrMin= 1.02D-06
 ErrMax= 1.02D-06  0.00D+00 EMaxC= 1.00D-01 BMatC= 2.85D-10 BMatP= 1.64D-09
 IDIUse=1 WtCom= 1.00D+00 WtEn= 0.00D+00
 Coeff-Com: -0.162D-02 0.738D-03 0.134D+00 0.105D+00 0.310D+00 0.452D+00
 Coeff:     -0.162D-02 0.738D-03 0.134D+00 0.105D+00 0.310D+00 0.452D+00
 Gap=     0.137 Goal=   None    Shift=    0.000
 RMSDP=2.80D-08 MaxDP=2.77D-06 DE=-1.43D-09 OVMax= 9.53D-06

 Cycle  14  Pass 1  IDiag  1:
 RMSU=  1.67D-08    CP:  1.00D+00  9.73D-01  9.84D-01  4.48D-01  7.20D-01
                    CP:  6.06D-01
 E= -2257.24551816265     Delta-E=       -0.000000000273 Rises=F Damp=F
 DIIS: error= 1.88D-07 at cycle   7 NSaved=   7.
 NSaved= 7 IEnMin= 7 EnMin= -2257.24551816265     IErMin= 7 ErrMin= 1.88D-07
 ErrMax= 1.88D-07  0.00D+00 EMaxC= 1.00D-01 BMatC= 1.48D-11 BMatP= 2.85D-10
 IDIUse=1 WtCom= 1.00D+00 WtEn= 0.00D+00
 Coeff-Com: -0.285D-03-0.392D-03 0.125D-01 0.891D-02 0.728D-01 0.213D+00
 Coeff-Com:  0.693D+00
 Coeff:     -0.285D-03-0.392D-03 0.125D-01 0.891D-02 0.728D-01 0.213D+00
 Coeff:      0.693D+00
 Gap=     0.137 Goal=   None    Shift=    0.000
 RMSDP=6.50D-09 MaxDP=4.25D-07 DE=-2.73D-10 OVMax= 2.16D-06

 SCF Done:  E(RB3LYP) =  -2257.24551816     A.U. after   14 cycles
            NFock= 14  Conv=0.65D-08     -V/T= 2.0030
 KE= 2.250490088637D+03 PE=-1.167937717251D+04 EE= 3.986481243733D+03
 Leave Link  502 at Mon Jan 13 11:47:07 2020, MaxMem=  6710886400 cpu:            2378.2 elap:             149.4
 (Enter /apps/gaussian/g16-a03/l601.exe)
 Copying SCF densities to generalized density rwf, IOpCl= 0 IROHF=0.

 **********************************************************************

            Population analysis using the SCF density.

 **********************************************************************

 Orbital symmetries:
       Occupied  (A) (A) (A) (A) (A) (A) (A) (A) (A) (A) (A) (A)
                 (A) (A) (A) (A) (A) (A) (A) (A) (A) (A) (A) (A)
                 (A) (A) (A) (A) (A) (A) (A) (A) (A) (A) (A) (A)
                 (A) (A) (A) (A) (A) (A) (A) (A) (A) (A) (A) (A)
                 (A) (A) (A) (A) (A) (A) (A) (A) (A) (A) (A) (A)
                 (A) (A) (A) (A) (A) (A) (A) (A) (A) (A) (A) (A)
                 (A) (A) (A) (A) (A) (A) (A) (A) (A) (A) (A) (A)
                 (A) (A) (A) (A) (A) (A) (A) (A) (A) (A) (A) (A)
                 (A) (A) (A) (A) (A) (A) (A) (A) (A) (A) (A) (A)
                 (A) (A) (A) (A) (A) (A) (A) (A) (A) (A) (A) (A)
                 (A) (A) (A) (A) (A) (A) (A) (A) (A) (A) (A)
       Virtual   (A) (A) (A) (A) (A) (A) (A) (A) (A) (A) (A) (A)
                 (A) (A) (A) (A) (A) (A) (A) (A) (A) (A) (A) (A)
                 (A) (A) (A) (A) (A) (A) (A) (A) (A) (A) (A) (A)
                 (A) (A) (A) (A) (A) (A) (A) (A) (A) (A) (A) (A)
                 (A) (A) (A) (A) (A) (A) (A) (A) (A) (A) (A) (A)
                 (A) (A) (A) (A) (A) (A) (A) (A) (A) (A) (A) (A)
                 (A) (A) (A) (A) (A) (A) (A) (A) (A) (A) (A) (A)
                 (A) (A) (A) (A) (A) (A) (A) (A) (A) (A) (A) (A)
                 (A) (A) (A) (A) (A) (A) (A) (A) (A) (A) (A) (A)
                 (A) (A) (A) (A) (A) (A) (A) (A) (A) (A) (A) (A)
                 (A) (A) (A) (A) (A) (A) (A) (A) (A) (A) (A) (A)
                 (A) (A) (A) (A) (A) (A) (A) (A) (A) (A) (A) (A)
                 (A) (A) (A) (A) (A) (A) (A) (A) (A) (A) (A) (A)
                 (A) (A) (A) (A) (A) (A) (A) (A) (A) (A) (A) (A)
                 (A) (A) (A) (A) (A) (A) (A) (A) (A) (A) (A) (A)
                 (A) (A) (A) (A) (A) (A) (A) (A) (A) (A) (A) (A)
                 (A) (A) (A) (A) (A) (A) (A) (A) (A) (A) (A) (A)
                 (A) (A) (A) (A) (A) (A) (A) (A) (A) (A) (A) (A)
                 (A) (A) (A) (A) (A) (A) (A) (A) (A) (A) (A) (A)
                 (A) (A) (A) (A) (A) (A) (A) (A) (A) (A) (A) (A)
                 (A) (A) (A) (A) (A) (A) (A) (A) (A) (A) (A) (A)
                 (A) (A) (A) (A) (A) (A) (A) (A) (A) (A) (A) (A)
                 (A) (A) (A) (A) (A) (A) (A) (A) (A) (A) (A) (A)
                 (A) (A) (A) (A) (A) (A) (A) (A) (A) (A) (A) (A)
                 (A) (A) (A) (A) (A) (A) (A) (A) (A) (A) (A) (A)
                 (A) (A) (A) (A) (A) (A) (A) (A) (A) (A) (A) (A)
                 (A) (A) (A) (A) (A) (A) (A) (A) (A) (A) (A) (A)
                 (A) (A) (A) (A) (A) (A) (A) (A) (A) (A) (A) (A)
                 (A) (A) (A) (A) (A) (A) (A) (A) (A) (A) (A) (A)
                 (A) (A) (A) (A) (A) (A) (A) (A) (A) (A) (A) (A)
                 (A) (A) (A) (A) (A) (A) (A) (A) (A) (A) (A) (A)
                 (A) (A) (A) (A) (A) (A) (A) (A) (A) (A) (A) (A)
                 (A) (A) (A) (A) (A) (A) (A) (A) (A) (A) (A) (A)
                 (A) (A) (A) (A) (A) (A) (A) (A) (A) (A) (A) (A)
                 (A) (A) (A) (A) (A) (A) (A) (A) (A) (A) (A) (A)
                 (A) (A) (A) (A) (A) (A) (A) (A) (A) (A) (A) (A)
                 (A) (A) (A) (A) (A) (A) (A) (A) (A) (A) (A) (A)
                 (A) (A) (A) (A) (A) (A) (A) (A) (A) (A) (A) (A)
                 (A) (A) (A) (A) (A) (A) (A) (A) (A) (A) (A) (A)
                 (A) (A) (A) (A) (A) (A) (A) (A) (A) (A) (A) (A)
                 (A) (A) (A) (A) (A) (A) (A) (A) (A) (A) (A) (A)
                 (A) (A) (A) (A) (A) (A) (A) (A) (A) (A) (A) (A)
                 (A) (A) (A) (A) (A) (A) (A) (A) (A) (A) (A) (A)
                 (A) (A) (A) (A) (A) (A) (A) (A) (A) (A) (A) (A)
                 (A) (A) (A) (A) (A) (A) (A) (A) (A) (A) (A) (A)
                 (A) (A) (A) (A) (A) (A) (A) (A) (A) (A) (A) (A)
                 (A) (A) (A) (A) (A) (A) (A) (A) (A) (A) (A) (A)
                 (A) (A) (A) (A) (A) (A) (A) (A) (A) (A) (A) (A)
                 (A) (A) (A) (A) (A) (A) (A) (A) (A) (A) (A) (A)
                 (A) (A) (A) (A) (A) (A) (A) (A) (A) (A) (A) (A)
                 (A) (A) (A) (A) (A) (A) (A) (A) (A) (A) (A) (A)
                 (A) (A) (A) (A) (A) (A) (A) (A) (A) (A) (A) (A)
                 (A) (A) (A) (A) (A) (A) (A) (A) (A) (A) (A) (A)
                 (A) (A) (A) (A) (A) (A) (A) (A) (A) (A) (A) (A)
                 (A) (A) (A) (A) (A) (A) (A) (A) (A) (A) (A) (A)
                 (A) (A) (A) (A) (A)
 The electronic state is 1-A.
 Alpha  occ. eigenvalues --  -88.87463 -88.86869 -19.15486 -19.15437 -19.13072
 Alpha  occ. eigenvalues --  -19.13071 -19.12455 -19.12444 -19.11935 -19.11925
 Alpha  occ. eigenvalues --  -10.23574 -10.23543 -10.23479 -10.23461 -10.22701
 Alpha  occ. eigenvalues --  -10.22687 -10.22430 -10.22419 -10.21588 -10.21576
 Alpha  occ. eigenvalues --  -10.21371 -10.21360 -10.21225 -10.21214 -10.20946
 Alpha  occ. eigenvalues --  -10.20901 -10.20653 -10.20644 -10.20310 -10.19756
 Alpha  occ. eigenvalues --  -10.18427 -10.17748  -7.95799  -7.95234  -5.92147
 Alpha  occ. eigenvalues --   -5.91785  -5.91569  -5.91322  -5.91206  -5.90781
 Alpha  occ. eigenvalues --   -1.05821  -1.05717  -1.03992  -1.03983  -1.03005
 Alpha  occ. eigenvalues --   -1.02997  -1.02608  -1.02600  -0.87381  -0.85468
 Alpha  occ. eigenvalues --   -0.79203  -0.79116  -0.77142  -0.76732  -0.75968
 Alpha  occ. eigenvalues --   -0.73251  -0.72845  -0.71484  -0.70588  -0.69302
 Alpha  occ. eigenvalues --   -0.67429  -0.67236  -0.63149  -0.63000  -0.61935
 Alpha  occ. eigenvalues --   -0.61923  -0.61586  -0.61551  -0.60380  -0.57836
 Alpha  occ. eigenvalues --   -0.55555  -0.55012  -0.53516  -0.51523  -0.51517
 Alpha  occ. eigenvalues --   -0.50815  -0.50740  -0.50436  -0.50415  -0.48511
 Alpha  occ. eigenvalues --   -0.48430  -0.48407  -0.48054  -0.47681  -0.47272
 Alpha  occ. eigenvalues --   -0.47259  -0.46542  -0.45752  -0.45189  -0.45131
 Alpha  occ. eigenvalues --   -0.44688  -0.44583  -0.44441  -0.43773  -0.42868
 Alpha  occ. eigenvalues --   -0.42727  -0.42473  -0.42439  -0.40431  -0.40260
 Alpha  occ. eigenvalues --   -0.40075  -0.39694  -0.38504  -0.37305  -0.36736
 Alpha  occ. eigenvalues --   -0.36725  -0.36630  -0.36330  -0.36292  -0.35783
 Alpha  occ. eigenvalues --   -0.34719  -0.33937  -0.33746  -0.32866  -0.32849
 Alpha  occ. eigenvalues --   -0.32722  -0.32477  -0.32351  -0.32340  -0.32046
 Alpha  occ. eigenvalues --   -0.31792  -0.27545  -0.27362  -0.27352  -0.26692
 Alpha  occ. eigenvalues --   -0.26683  -0.26127  -0.26117  -0.23873  -0.23687
 Alpha  occ. eigenvalues --   -0.18434
 Alpha virt. eigenvalues --   -0.04776   0.00354   0.00549   0.00879   0.04215
 Alpha virt. eigenvalues --    0.04352   0.04486   0.04796   0.04823   0.04924
 Alpha virt. eigenvalues --    0.04945   0.05508   0.05789   0.06496   0.06784
 Alpha virt. eigenvalues --    0.07203   0.07205   0.07291   0.08008   0.08251
 Alpha virt. eigenvalues --    0.08567   0.08816   0.08875   0.08918   0.09152
 Alpha virt. eigenvalues --    0.10072   0.10220   0.10856   0.10870   0.10978
 Alpha virt. eigenvalues --    0.11048   0.11057   0.11420   0.11879   0.12627
 Alpha virt. eigenvalues --    0.13145   0.13250   0.13396   0.13856   0.14434
 Alpha virt. eigenvalues --    0.14656   0.14686   0.15016   0.15112   0.15661
 Alpha virt. eigenvalues --    0.15755   0.16965   0.16989   0.17225   0.18082
 Alpha virt. eigenvalues --    0.18665   0.18756   0.18960   0.19579   0.19721
 Alpha virt. eigenvalues --    0.20064   0.20276   0.21098   0.21390   0.21712
 Alpha virt. eigenvalues --    0.21999   0.22438   0.22750   0.23359   0.23658
 Alpha virt. eigenvalues --    0.24225   0.25318   0.26160   0.26955   0.27873
 Alpha virt. eigenvalues --    0.29302   0.29664   0.30801   0.30810   0.31502
 Alpha virt. eigenvalues --    0.31832   0.32235   0.32326   0.33150   0.33193
 Alpha virt. eigenvalues --    0.33204   0.33703   0.34233   0.34442   0.34453
 Alpha virt. eigenvalues --    0.36002   0.36394   0.37125   0.37767   0.39644
 Alpha virt. eigenvalues --    0.39837   0.40346   0.40502   0.41204   0.41240
 Alpha virt. eigenvalues --    0.41535   0.42200   0.43018   0.43085   0.43326
 Alpha virt. eigenvalues --    0.43428   0.43565   0.44223   0.44239   0.44694
 Alpha virt. eigenvalues --    0.44721   0.44890   0.45420   0.45441   0.45526
 Alpha virt. eigenvalues --    0.45851   0.46271   0.47527   0.47660   0.49040
 Alpha virt. eigenvalues --    0.49344   0.49646   0.50277   0.50339   0.50404
 Alpha virt. eigenvalues --    0.50567   0.51800   0.51803   0.51891   0.52763
 Alpha virt. eigenvalues --    0.52789   0.53119   0.53433   0.53697   0.53988
 Alpha virt. eigenvalues --    0.54190   0.54236   0.54535   0.55500   0.55868
 Alpha virt. eigenvalues --    0.56063   0.56095   0.56655   0.56747   0.57498
 Alpha virt. eigenvalues --    0.57551   0.57648   0.58529   0.58604   0.58695
 Alpha virt. eigenvalues --    0.58837   0.59948   0.59968   0.60256   0.60366
 Alpha virt. eigenvalues --    0.60553   0.60823   0.60949   0.61126   0.61296
 Alpha virt. eigenvalues --    0.61448   0.62003   0.62389   0.62477   0.62610
 Alpha virt. eigenvalues --    0.62710   0.62824   0.62883   0.63534   0.64080
 Alpha virt. eigenvalues --    0.64470   0.64598   0.65411   0.65597   0.65960
 Alpha virt. eigenvalues --    0.66595   0.67807   0.67874   0.69258   0.69400
 Alpha virt. eigenvalues --    0.70550   0.71167   0.72869   0.73248   0.74020
 Alpha virt. eigenvalues --    0.74559   0.75192   0.75231   0.76475   0.77034
 Alpha virt. eigenvalues --    0.77201   0.79241   0.80136   0.80173   0.81187
 Alpha virt. eigenvalues --    0.83284   0.84616   0.86035   0.86206   0.86461
 Alpha virt. eigenvalues --    0.86725   0.87908   0.88105   0.88327   0.88537
 Alpha virt. eigenvalues --    0.89210   0.89713   0.90448   0.92273   0.92571
 Alpha virt. eigenvalues --    0.92660   0.94894   0.95233   0.95308   0.96274
 Alpha virt. eigenvalues --    0.97292   0.97960   0.98119   0.98575   0.98625
 Alpha virt. eigenvalues --    0.99366   1.00073   1.01880   1.02021   1.02249
 Alpha virt. eigenvalues --    1.02843   1.03086   1.04347   1.04996   1.05543
 Alpha virt. eigenvalues --    1.05610   1.05617   1.06293   1.06562   1.06997
 Alpha virt. eigenvalues --    1.07230   1.08735   1.08864   1.08901   1.09376
 Alpha virt. eigenvalues --    1.09706   1.09950   1.09993   1.10036   1.12406
 Alpha virt. eigenvalues --    1.12863   1.13745   1.13812   1.15894   1.17170
 Alpha virt. eigenvalues --    1.18539   1.19351   1.19477   1.21706   1.22874
 Alpha virt. eigenvalues --    1.24013   1.24319   1.24756   1.24778   1.25103
 Alpha virt. eigenvalues --    1.25277   1.27685   1.27940   1.28809   1.30530
 Alpha virt. eigenvalues --    1.32393   1.32612   1.33704   1.34472   1.39490
 Alpha virt. eigenvalues --    1.39506   1.40506   1.40545   1.43138   1.44531
 Alpha virt. eigenvalues --    1.44673   1.44683   1.44837   1.44982   1.45836
 Alpha virt. eigenvalues --    1.45960   1.46123   1.46221   1.46418   1.46432
 Alpha virt. eigenvalues --    1.46961   1.46971   1.47100   1.48186   1.48201
 Alpha virt. eigenvalues --    1.48218   1.48339   1.48951   1.49124   1.49817
 Alpha virt. eigenvalues --    1.49835   1.51234   1.51514   1.51798   1.52727
 Alpha virt. eigenvalues --    1.52780   1.53685   1.53726   1.53928   1.55001
 Alpha virt. eigenvalues --    1.55070   1.56192   1.56506   1.57472   1.57969
 Alpha virt. eigenvalues --    1.58192   1.58317   1.58584   1.58709   1.58810
 Alpha virt. eigenvalues --    1.59318   1.59341   1.60016   1.60091   1.60218
 Alpha virt. eigenvalues --    1.60259   1.60647   1.60900   1.61230   1.61338
 Alpha virt. eigenvalues --    1.61638   1.62084   1.62365   1.62522   1.63235
 Alpha virt. eigenvalues --    1.64934   1.65126   1.65185   1.65491   1.65524
 Alpha virt. eigenvalues --    1.65779   1.66272   1.66379   1.66391   1.68284
 Alpha virt. eigenvalues --    1.68583   1.69841   1.70286   1.70296   1.70376
 Alpha virt. eigenvalues --    1.73090   1.73837   1.74141   1.74339   1.74694
 Alpha virt. eigenvalues --    1.75348   1.75511   1.76853   1.77228   1.79530
 Alpha virt. eigenvalues --    1.79781   1.80243   1.80398   1.80602   1.81218
 Alpha virt. eigenvalues --    1.81812   1.82917   1.83090   1.83284   1.84872
 Alpha virt. eigenvalues --    1.84881   1.85845   1.87039   1.87207   1.87650
 Alpha virt. eigenvalues --    1.87832   1.89103   1.90524   1.91329   1.92713
 Alpha virt. eigenvalues --    1.93761   1.96717   1.97364   1.97744   1.98134
 Alpha virt. eigenvalues --    1.98552   1.99138   1.99426   2.01320   2.01493
 Alpha virt. eigenvalues --    2.01728   2.02778   2.03141   2.03690   2.03824
 Alpha virt. eigenvalues --    2.04425   2.04534   2.05151   2.05764   2.06046
 Alpha virt. eigenvalues --    2.06479   2.07664   2.08205   2.08241   2.08369
 Alpha virt. eigenvalues --    2.09536   2.09637   2.10240   2.11268   2.11873
 Alpha virt. eigenvalues --    2.12193   2.12694   2.12705   2.13917   2.14456
 Alpha virt. eigenvalues --    2.14823   2.16809   2.18216   2.18271   2.19440
 Alpha virt. eigenvalues --    2.21044   2.21471   2.22910   2.26108   2.26193
 Alpha virt. eigenvalues --    2.29752   2.30632   2.32198   2.32241   2.32769
 Alpha virt. eigenvalues --    2.32772   2.32987   2.33122   2.33136   2.33412
 Alpha virt. eigenvalues --    2.33497   2.33757   2.34628   2.34776   2.34796
 Alpha virt. eigenvalues --    2.35164   2.35178   2.36386   2.36440   2.37645
 Alpha virt. eigenvalues --    2.38050   2.38062   2.38692   2.38819   2.41090
 Alpha virt. eigenvalues --    2.41212   2.41955   2.41956   2.43499   2.43825
 Alpha virt. eigenvalues --    2.43833   2.45733   2.47999   2.48353   2.51206
 Alpha virt. eigenvalues --    2.51606   2.51615   2.51616   2.52502   2.52517
 Alpha virt. eigenvalues --    2.52896   2.53141   2.53708   2.54624   2.54651
 Alpha virt. eigenvalues --    2.55168   2.56256   2.56690   2.57379   2.57583
 Alpha virt. eigenvalues --    2.58015   2.58034   2.58284   2.58639   2.59347
 Alpha virt. eigenvalues --    2.60041   2.60507   2.61838   2.61963   2.63099
 Alpha virt. eigenvalues --    2.64158   2.64168   2.64739   2.64922   2.65391
 Alpha virt. eigenvalues --    2.67007   2.70950   2.72099   2.72363   2.73247
 Alpha virt. eigenvalues --    2.73911   2.75115   2.75369   2.75648   2.78570
 Alpha virt. eigenvalues --    2.78639   2.79260   2.79548   2.80676   2.80704
 Alpha virt. eigenvalues --    2.81285   2.82520   2.82564   2.83267   2.83436
 Alpha virt. eigenvalues --    2.84166   2.84279   2.86308   2.86371   2.87856
 Alpha virt. eigenvalues --    2.88148   2.88976   2.90634   2.91141   2.91319
 Alpha virt. eigenvalues --    2.92308   2.93973   2.94360   2.95376   2.95446
 Alpha virt. eigenvalues --    2.97353   2.98122   3.02514   3.04004   3.04092
 Alpha virt. eigenvalues --    3.05228   3.07641   3.07703   3.10334   3.10345
 Alpha virt. eigenvalues --    3.12116   3.12168   3.14160   3.14178   3.15361
 Alpha virt. eigenvalues --    3.15417   3.15468   3.16348   3.16696   3.19211
 Alpha virt. eigenvalues --    3.19539   3.19583   3.19792   3.20587   3.21104
 Alpha virt. eigenvalues --    3.22603   3.23108   3.23322   3.23531   3.25410
 Alpha virt. eigenvalues --    3.26189   3.26205   3.27712   3.27737   3.30333
 Alpha virt. eigenvalues --    3.32273   3.32325   3.32941   3.34434   3.36225
 Alpha virt. eigenvalues --    3.40608   3.49256   3.51743   3.67430   3.77443
 Alpha virt. eigenvalues --    3.77452   3.77700   3.77735   3.79045   3.79111
 Alpha virt. eigenvalues --    3.79761   3.79771   3.82728   3.82737   3.84760
 Alpha virt. eigenvalues --    3.84773   3.85662   3.85672   3.85773   3.85784
 Alpha virt. eigenvalues --    3.91206   3.93903   3.94992   3.96750   3.97098
 Alpha virt. eigenvalues --    3.99088   4.00117   4.00123   4.01278   4.02987
 Alpha virt. eigenvalues --    4.04767   4.05723   4.06043   4.06616   4.07429
 Alpha virt. eigenvalues --    4.08007   4.12765   4.15826   4.16974   4.19716
 Alpha virt. eigenvalues --    4.21529   4.25051   4.26228   4.28303   4.29391
 Alpha virt. eigenvalues --    4.56436   4.90199   4.92307   4.94300   4.94308
 Alpha virt. eigenvalues --    4.95162   4.95196   4.96162   4.96172   5.18413
 Alpha virt. eigenvalues --    5.18599   5.22831   5.22918   5.28043   5.29043
 Alpha virt. eigenvalues --    5.29922   5.30256   5.60701   5.60756   5.63816
 Alpha virt. eigenvalues --    5.63990   5.69722   5.70180   5.74180   5.76590
 Alpha virt. eigenvalues --    7.73740   7.74993  17.19922  17.21691  17.38970
 Alpha virt. eigenvalues --   17.39968  17.45495  17.49924  23.39594  23.66742
 Alpha virt. eigenvalues --   23.76430  23.76434  23.78695  23.78883  23.78958
 Alpha virt. eigenvalues --   23.80221  23.80366  23.80676  23.80687  23.83079
 Alpha virt. eigenvalues --   23.83089  23.85108  23.85260  23.85271  23.92321
 Alpha virt. eigenvalues --   23.92330  24.03284  24.05494  24.16268  24.17090
 Alpha virt. eigenvalues --   49.87902  49.87912  49.90063  49.90072  49.91750
 Alpha virt. eigenvalues --   49.92238  49.92325  49.92632 188.84872 188.86200
          Condensed to atoms (all electrons):
 Mulliken charges:
               1
     1  C   -0.221211
     2  C    0.254710
     3  C   -0.091217
     4  C   -0.282506
     5  S    0.273871
     6  O   -0.412411
     7  H    0.110079
     8  C   -0.216732
     9  C    0.255313
    10  C   -0.072313
    11  C   -0.304792
    12  S    0.250873
    13  O   -0.413655
    14  H    0.114430
    15  C   -0.030867
    16  H    0.120446
    17  H    0.120446
    18  C   -0.033249
    19  H    0.121043
    20  H    0.121040
    21  C    0.018872
    22  H    0.111998
[...]
 Alpha  occ. eigenvalues --  -10.21809 -10.21809 -10.21681 -10.21680 -10.21422
 Alpha  occ. eigenvalues --  -10.21422 -10.20259 -10.20223 -10.19378 -10.19377
 Alpha  occ. eigenvalues --  -10.17481 -10.17481  -7.95561  -7.95561  -5.91871
 Alpha  occ. eigenvalues --   -5.91871  -5.91485  -5.91484  -5.91134  -5.91133
 Alpha  occ. eigenvalues --   -1.07458  -1.07391  -1.05102  -1.05100  -1.04379
 Alpha  occ. eigenvalues --   -1.04378  -1.03606  -1.03605  -0.88794  -0.87006
 Alpha  occ. eigenvalues --   -0.79742  -0.79666  -0.77488  -0.77275  -0.76107
 Alpha  occ. eigenvalues --   -0.73749  -0.73331  -0.71881  -0.70823  -0.69247
 Alpha  occ. eigenvalues --   -0.66998  -0.66725  -0.63207  -0.63047  -0.61495
 Alpha  occ. eigenvalues --   -0.61484  -0.61035  -0.61009  -0.59647  -0.57420
 Alpha  occ. eigenvalues --   -0.55806  -0.55798  -0.53593  -0.51629  -0.51621
 Alpha  occ. eigenvalues --   -0.51608  -0.51581  -0.50318  -0.50296  -0.48932
 Alpha  occ. eigenvalues --   -0.48817  -0.48247  -0.48204  -0.48147  -0.47651
 Alpha  occ. eigenvalues --   -0.47512  -0.46628  -0.45993  -0.45121  -0.45063
 Alpha  occ. eigenvalues --   -0.45045  -0.44945  -0.44242  -0.44222  -0.43052
 Alpha  occ. eigenvalues --   -0.42878  -0.42500  -0.42443  -0.40314  -0.40197
 Alpha  occ. eigenvalues --   -0.40119  -0.39274  -0.38226  -0.37701  -0.37144
 Alpha  occ. eigenvalues --   -0.36755  -0.36656  -0.36079  -0.36043  -0.35916
 Alpha  occ. eigenvalues --   -0.34932  -0.33973  -0.33611  -0.32919  -0.32880
 Alpha  occ. eigenvalues --   -0.32871  -0.32609  -0.32450  -0.32408  -0.32392
 Alpha  occ. eigenvalues --   -0.32220  -0.27387  -0.27307  -0.27300  -0.26739
 Alpha  occ. eigenvalues --   -0.26735  -0.26139  -0.26139  -0.23750  -0.23444
 Alpha  occ. eigenvalues --   -0.18328
 Alpha virt. eigenvalues --   -0.03751   0.01177   0.02302   0.02507   0.04275
 Alpha virt. eigenvalues --    0.04325   0.04739   0.04740   0.04941   0.05113
 Alpha virt. eigenvalues --    0.05441   0.05779   0.06326   0.06690   0.07021
 Alpha virt. eigenvalues --    0.07054   0.07121   0.07748   0.08323   0.08347
 Alpha virt. eigenvalues --    0.08602   0.08676   0.08753   0.08891   0.09368
 Alpha virt. eigenvalues --    0.10409   0.10525   0.10868   0.10966   0.10968
 Alpha virt. eigenvalues --    0.10987   0.11239   0.11530   0.12517   0.12641
 Alpha virt. eigenvalues --    0.12954   0.13110   0.13170   0.13488   0.14237
 Alpha virt. eigenvalues --    0.14451   0.14800   0.15143   0.15434   0.15480
 Alpha virt. eigenvalues --    0.16095   0.16378   0.16479   0.17700   0.18972
 Alpha virt. eigenvalues --    0.19421   0.19478   0.19514   0.19665   0.20604
 Alpha virt. eigenvalues --    0.20742   0.20876   0.21475   0.21628   0.21964
 Alpha virt. eigenvalues --    0.22745   0.23326   0.23667   0.24224   0.24819
 Alpha virt. eigenvalues --    0.25428   0.26391   0.26937   0.27919   0.28932
 Alpha virt. eigenvalues --    0.29358   0.29569   0.30813   0.30814   0.32222
 Alpha virt. eigenvalues --    0.32294   0.32346   0.32866   0.32939   0.33255
 Alpha virt. eigenvalues --    0.33513   0.34272   0.34282   0.34920   0.34954
 Alpha virt. eigenvalues --    0.36217   0.36497   0.36910   0.38058   0.39604
 Alpha virt. eigenvalues --    0.39857   0.40352   0.40597   0.40676   0.40918
 Alpha virt. eigenvalues --    0.41642   0.42363   0.42911   0.42945   0.43108
 Alpha virt. eigenvalues --    0.43499   0.44039   0.44257   0.44284   0.44788
 Alpha virt. eigenvalues --    0.44882   0.45070   0.45108   0.45661   0.45938
 Alpha virt. eigenvalues --    0.46362   0.46603   0.48037   0.48287   0.48827
 Alpha virt. eigenvalues --    0.49555   0.49737   0.50222   0.50264   0.50488
 Alpha virt. eigenvalues --    0.50810   0.50876   0.50934   0.51346   0.51456
 Alpha virt. eigenvalues --    0.51860   0.52049   0.52336   0.53372   0.53514
 Alpha virt. eigenvalues --    0.53567   0.53903   0.53907   0.54519   0.54909
 Alpha virt. eigenvalues --    0.55097   0.55135   0.55664   0.55921   0.57339
 Alpha virt. eigenvalues --    0.57775   0.57819   0.57988   0.58154   0.58156
 Alpha virt. eigenvalues --    0.58547   0.58953   0.58973   0.60048   0.60199
 Alpha virt. eigenvalues --    0.60434   0.60729   0.60750   0.60813   0.61125
 Alpha virt. eigenvalues --    0.61308   0.61854   0.62323   0.62466   0.62551
 Alpha virt. eigenvalues --    0.62617   0.62693   0.62788   0.63453   0.64256
 Alpha virt. eigenvalues --    0.64393   0.64935   0.65312   0.65740   0.66006
 Alpha virt. eigenvalues --    0.67005   0.67849   0.67867   0.70028   0.70272
 Alpha virt. eigenvalues --    0.70959   0.71090   0.72800   0.73013   0.73122
 Alpha virt. eigenvalues --    0.73939   0.74917   0.75876   0.76434   0.77026
 Alpha virt. eigenvalues --    0.77628   0.80259   0.80266   0.80763   0.80915
 Alpha virt. eigenvalues --    0.84661   0.85074   0.85671   0.86328   0.87148
 Alpha virt. eigenvalues --    0.88874   0.88903   0.89427   0.89459   0.90081
 Alpha virt. eigenvalues --    0.90595   0.91219   0.92384   0.93349   0.93788
 Alpha virt. eigenvalues --    0.94303   0.95401   0.95644   0.95692   0.96149
 Alpha virt. eigenvalues --    0.97303   0.97814   0.98394   0.99142   0.99267
 Alpha virt. eigenvalues --    1.01277   1.01965   1.02223   1.02754   1.03139
 Alpha virt. eigenvalues --    1.03242   1.03247   1.04298   1.04641   1.05181
 Alpha virt. eigenvalues --    1.05343   1.05502   1.06037   1.06169   1.06185
 Alpha virt. eigenvalues --    1.06646   1.07430   1.07747   1.08549   1.09010
 Alpha virt. eigenvalues --    1.09854   1.10472   1.11367   1.11850   1.12714
 Alpha virt. eigenvalues --    1.12742   1.12833   1.14171   1.17028   1.17988
 Alpha virt. eigenvalues --    1.18330   1.19677   1.21020   1.22852   1.23181
 Alpha virt. eigenvalues --    1.24301   1.24902   1.25122   1.25647   1.25797
 Alpha virt. eigenvalues --    1.25803   1.28133   1.28396   1.29300   1.32273
 Alpha virt. eigenvalues --    1.33112   1.34455   1.34561   1.34564   1.40689
 Alpha virt. eigenvalues --    1.41008   1.41024   1.42138   1.43236   1.43806
 Alpha virt. eigenvalues --    1.43806   1.44907   1.45158   1.45227   1.46254
 Alpha virt. eigenvalues --    1.46341   1.46380   1.46429   1.46597   1.46623
 Alpha virt. eigenvalues --    1.46932   1.46936   1.47257   1.47259   1.48016
 Alpha virt. eigenvalues --    1.48112   1.49149   1.49281   1.49979   1.50115
 Alpha virt. eigenvalues --    1.50597   1.51145   1.51560   1.52183   1.52306
 Alpha virt. eigenvalues --    1.52797   1.53176   1.53200   1.55362   1.55628
 Alpha virt. eigenvalues --    1.56699   1.56852   1.57350   1.57380   1.57519
 Alpha virt. eigenvalues --    1.58142   1.58616   1.58742   1.58840   1.59003
 Alpha virt. eigenvalues --    1.59015   1.59069   1.59406   1.59434   1.60096
 Alpha virt. eigenvalues --    1.60975   1.61145   1.61325   1.61438   1.62193
 Alpha virt. eigenvalues --    1.62549   1.62581   1.62590   1.63316   1.63998
 Alpha virt. eigenvalues --    1.65411   1.65421   1.65536   1.65675   1.65716
 Alpha virt. eigenvalues --    1.65925   1.66046   1.66061   1.66611   1.68986
 Alpha virt. eigenvalues --    1.68986   1.69678   1.70009   1.72106   1.73176
 Alpha virt. eigenvalues --    1.73224   1.73453   1.74305   1.75546   1.76246
 Alpha virt. eigenvalues --    1.76352   1.77291   1.77439   1.77982   1.78605
 Alpha virt. eigenvalues --    1.79483   1.79581   1.80089   1.80090   1.80357
 Alpha virt. eigenvalues --    1.80376   1.81843   1.81924   1.82631   1.82668
 Alpha virt. eigenvalues --    1.84906   1.86140   1.86791   1.87416   1.87437
 Alpha virt. eigenvalues --    1.89053   1.90127   1.92021   1.92612   1.93850
 Alpha virt. eigenvalues --    1.94486   1.95963   1.97783   1.97882   1.99031
 Alpha virt. eigenvalues --    1.99161   1.99928   2.00389   2.01070   2.01670
 Alpha virt. eigenvalues --    2.01783   2.02157   2.02249   2.03530   2.03590
 Alpha virt. eigenvalues --    2.03895   2.03977   2.04897   2.05103   2.06332
 Alpha virt. eigenvalues --    2.06811   2.07184   2.07454   2.08891   2.09410
 Alpha virt. eigenvalues --    2.09699   2.09850   2.09973   2.10493   2.10532
 Alpha virt. eigenvalues --    2.12058   2.12116   2.12695   2.14932   2.15063
 Alpha virt. eigenvalues --    2.15423   2.15740   2.17692   2.17833   2.18329
 Alpha virt. eigenvalues --    2.21139   2.22407   2.22690   2.26651   2.26718
 Alpha virt. eigenvalues --    2.29124   2.29172   2.29475   2.29522   2.29787
 Alpha virt. eigenvalues --    2.29957   2.31451   2.31507   2.33505   2.33916
 Alpha virt. eigenvalues --    2.34781   2.34789   2.34993   2.35013   2.35592
 Alpha virt. eigenvalues --    2.35605   2.35655   2.35866   2.35882   2.36062
 Alpha virt. eigenvalues --    2.36081   2.38620   2.41137   2.41176   2.41701
 Alpha virt. eigenvalues --    2.41723   2.42415   2.42458   2.43492   2.43532
 Alpha virt. eigenvalues --    2.44474   2.44605   2.44999   2.46041   2.46041
 Alpha virt. eigenvalues --    2.47635   2.48450   2.48668   2.49340   2.49556
 Alpha virt. eigenvalues --    2.51069   2.51643   2.52199   2.52653   2.53154
 Alpha virt. eigenvalues --    2.53158   2.53544   2.53683   2.53756   2.54792
 Alpha virt. eigenvalues --    2.55800   2.56850   2.57336   2.57410   2.58425
 Alpha virt. eigenvalues --    2.60374   2.60740   2.61002   2.61099   2.61135
 Alpha virt. eigenvalues --    2.61617   2.63054   2.63613   2.65149   2.65302
 Alpha virt. eigenvalues --    2.65785   2.70714   2.72723   2.72855   2.72970
 Alpha virt. eigenvalues --    2.73985   2.73993   2.75720   2.76282   2.78109
 Alpha virt. eigenvalues --    2.78130   2.81366   2.81447   2.82005   2.82375
 Alpha virt. eigenvalues --    2.82654   2.83983   2.84025   2.85272   2.85317
 Alpha virt. eigenvalues --    2.85977   2.86039   2.87080   2.87101   2.89236
 Alpha virt. eigenvalues --    2.90815   2.90970   2.91846   2.93655   2.93947
 Alpha virt. eigenvalues --    2.95434   2.95441   2.96046   2.96108   2.97403
 Alpha virt. eigenvalues --    2.99847   3.00952   3.05450   3.05577   3.06283
 Alpha virt. eigenvalues --    3.07896   3.07942   3.08814   3.11202   3.11248
 Alpha virt. eigenvalues --    3.13552   3.13559   3.14990   3.15226   3.17265
 Alpha virt. eigenvalues --    3.17392   3.18195   3.18566   3.20034   3.20753
 Alpha virt. eigenvalues --    3.21923   3.22050   3.22062   3.22274   3.24722
 Alpha virt. eigenvalues --    3.25326   3.26051   3.26277   3.27554   3.27984
 Alpha virt. eigenvalues --    3.28443   3.28496   3.31779   3.31798   3.33411
 Alpha virt. eigenvalues --    3.33861   3.33918   3.35187   3.37064   3.41636
 Alpha virt. eigenvalues --    3.43864   3.49330   3.50853   3.69763   3.75264
 Alpha virt. eigenvalues --    3.75264   3.75680   3.75680   3.76470   3.76486
 Alpha virt. eigenvalues --    3.76972   3.76974   3.77646   3.77646   3.79122
 Alpha virt. eigenvalues --    3.79186   3.79706   3.79730   3.80692   3.80697
 Alpha virt. eigenvalues --    3.92372   3.94317   3.94349   3.94888   3.96273
 Alpha virt. eigenvalues --    3.99850   4.01486   4.02741   4.03743   4.05112
 Alpha virt. eigenvalues --    4.06739   4.07968   4.08795   4.09365   4.12862
 Alpha virt. eigenvalues --    4.13386   4.15727   4.17429   4.18167   4.22092
 Alpha virt. eigenvalues --    4.23196   4.26658   4.28521   4.31004   4.31802
 Alpha virt. eigenvalues --    4.57889   4.90897   4.92982   4.94372   4.94384
 Alpha virt. eigenvalues --    4.95798   4.95864   4.96679   4.96691   5.20275
 Alpha virt. eigenvalues --    5.20338   5.24609   5.24791   5.29623   5.29837
 Alpha virt. eigenvalues --    5.33152   5.34612   5.66032   5.66088   5.69175
 Alpha virt. eigenvalues --    5.69403   5.74626   5.75191   5.79899   5.82309
 Alpha virt. eigenvalues --    7.81686   7.81924  17.19855  17.21961  17.42125
 Alpha virt. eigenvalues --   17.42914  17.48095  17.53014  23.42524  23.66569
 Alpha virt. eigenvalues --   23.77462  23.77471  23.77972  23.77992  23.78032
 Alpha virt. eigenvalues --   23.78376  23.78381  23.79777  23.79985  23.80220
 Alpha virt. eigenvalues --   23.80221  23.81037  23.81056  23.83223  23.85926
 Alpha virt. eigenvalues --   23.85926  24.03634  24.03949  24.16218  24.16604
 Alpha virt. eigenvalues --   49.87952  49.87954  49.90652  49.90658  49.92513
 Alpha virt. eigenvalues --   49.92633  49.92840  49.93548 188.93086 188.93515
          Condensed to atoms (all electrons):
 Mulliken charges:
               1
     1  C   -0.229906
     2  C    0.237214
     3  C   -0.091337
     4  C   -0.304715
     5  S    0.310348
     6  O   -0.382573
     7  H    0.108856
     8  C   -0.229946
     9  C    0.237220
    10  C   -0.091347
    11  C   -0.304729
    12  S    0.310369
    13  O   -0.382534
    14  H    0.108858
    15  C   -0.043399
    16  H    0.116387
    17  H    0.116386
    18  C   -0.043415
    19  H    0.116381
    20  H    0.116381
    21  C    0.014358
    22  H    0.105779
    23  H    0.105779
    24  C    0.014361
    25  H    0.105776
    26  H    0.105777
    27  O   -0.392121
    28  O   -0.392118
    29  C    0.000556
    30  H    0.098540
    31  H    0.098541
    32  C    0.000555
    33  H    0.098540
    34  H    0.098540
    35  C    0.002633
    36  H    0.096512
    37  H    0.096506
    38  C    0.002633
    39  H    0.096509
    40  H    0.096509
    41  O   -0.389995
    42  O   -0.389996
    43  C    0.000604
    44  H    0.097632
    45  H    0.097632
    46  C    0.000604
    47  H    0.097628
    48  H    0.097637
    49  C   -0.008007
    50  H    0.094227
    51  H    0.094225
    52  O   -0.370411
    53  C   -0.102024
    54  H    0.089284
    55  H    0.115616
    56  H    0.089283
    57  C   -0.008007
    58  H    0.094226
    59  H    0.094226
    60  O   -0.370411
    61  C   -0.102025
    62  H    0.115616
    63  H    0.089283
    64  H    0.089283
    65  H    0.127603
    66  H    0.127603
 Sum of Mulliken charges =  -0.00000
 Mulliken charges with hydrogens summed into heavy atoms:
               1
     1  C   -0.229906
     2  C    0.237214
     3  C    0.017519
     4  C   -0.177112
     5  S    0.310348
     6  O   -0.382573
     8  C   -0.229946
     9  C    0.237220
    10  C    0.017511
    11  C   -0.177126
    12  S    0.310369
    13  O   -0.382534
    15  C    0.189375
    18  C    0.189347
    21  C    0.225915
    24  C    0.225914
    27  O   -0.392121
    28  O   -0.392118
    29  C    0.197637
    32  C    0.197636
    35  C    0.195651
    38  C    0.195651
    41  O   -0.389995
    42  O   -0.389996
    43  C    0.195869
    46  C    0.195869
    49  C    0.180444
    52  O   -0.370411
    53  C    0.192158
    57  C    0.180444
    60  O   -0.370411
    61  C    0.192158
 Electronic spatial extent (au):  <R**2>=          57555.6467
 Charge=             -0.0000 electrons
 Dipole moment (field-independent basis, Debye):
    X=              0.0002    Y=              0.0001    Z=              0.0004  Tot=              0.0004
 Quadrupole moment (field-independent basis, Debye-Ang):
   XX=           -165.7936   YY=           -195.2079   ZZ=           -210.4940
   XY=            -18.1441   XZ=              0.0036   YZ=             -0.0001
 Traceless Quadrupole moment (field-independent basis, Debye-Ang):
   XX=             24.7049   YY=             -4.7094   ZZ=            -19.9955
   XY=            -18.1441   XZ=              0.0036   YZ=             -0.0001
 Octapole moment (field-independent basis, Debye-Ang**2):
  XXX=             -0.0744  YYY=              0.0122  ZZZ=              0.0024  XYY=              0.0347
  XXY=             -0.0290  XXZ=              0.0701  XZZ=             -0.0007  YZZ=             -0.0040
  YYZ=             -0.0020  XYZ=             -0.0066
 Hexadecapole moment (field-independent basis, Debye-Ang**3):
 XXXX=         -60488.0902 YYYY=          -2490.4281 ZZZZ=           -328.9549 XXXY=          -4532.4293
 XXXZ=              0.7193 YYYX=             35.8723 YYYZ=              0.0102 ZZZX=             -0.0059
 ZZZY=             -0.0037 XXYY=         -12274.2598 XXZZ=         -11932.4175 YYZZ=           -548.7323
 XXYZ=             -0.0526 YYXZ=             -0.0077 ZZXY=              1.1559
 N-N= 3.220345615639D+03 E-N=-1.174972602114D+04  KE= 2.250813657730D+03
 No NMR shielding tensors so no spin-rotation constants.
 Leave Link  601 at Mon Jan 13 12:04:46 2020, MaxMem=  6710886400 cpu:              12.4 elap:               0.9
 (Enter /apps/gaussian/g16-a03/l9999.exe)
 1\1\GINC-CX1-141-15-1\FOpt\RB3LYP\6-311G(d,p)\C22H34O8S2\NS5018\13-Jan
 -2020\0\\#p opt b3lyp/6-311g(d,p)\\O3G_1m_0sc_opt.gjf\\0,1\C,4.4084842
 582,-0.4278499098,-0.1245909293\C,5.1959842884,0.7127695159,-0.1244030
 693\C,6.5967408111,0.457896215,-0.124036657\C,6.8751245547,-0.87789987
 15,-0.1239416018\S,5.4463978641,-1.8478625187,-0.1243179118\O,4.603153
 2772,1.941550689,-0.1245619968\H,7.3570158631,1.2252081643,-0.12384548
 23\C,2.9671215371,-0.5151265672,-0.1249567039\C,2.1795162197,-1.655647
 1864,-0.125153263\C,0.7787370084,-1.4006230024,-0.1254947875\C,0.50052
 32467,-0.064814204,-0.1255490215\S,1.9293360355,0.9050154531,-0.125241
 5949\O,2.7721431786,-2.8845118712,-0.1250052973\H,0.0184891035,-2.1679
 568928,-0.1256748629\C,5.4416576578,3.0929287395,-0.1244259513\H,6.079
 9441856,3.1081481492,-1.0148009296\H,6.0795356788,3.1082358479,0.76624
 04068\C,1.9335161184,-4.0357578895,-0.1251693424\H,1.2952106221,-4.050
 9300388,0.7651992075\H,1.295629983,-4.0509812051,-1.0158376013\C,4.528
 836717,4.3064292914,-0.1246921811\H,3.8837348134,4.2883973621,-1.01399
 83368\H,3.8833147892,4.2884698236,0.7643106768\C,2.8461728958,-5.24939
 13678,-0.1249189604\H,3.4916910129,-5.2315180342,-1.013926425\H,3.4912
 788601,-5.2314591779,0.7643864364\O,5.3652486095,5.4471882125,-0.12454
 11782\O,2.0095812926,-6.3900103454,-0.1250756418\C,4.6509127483,6.6706
 146947,-0.1247634228\H,4.0098883423,6.7512861897,-1.0137762383\H,4.009
 4557167,6.7513554936,0.7639307545\C,2.7237222725,-7.6135501061,-0.1248
 801795\H,3.3647499615,-7.6943335755,0.7641200473\H,3.3651514012,-7.694
 3830963,-1.0135863096\C,5.670525165,7.795884608,-0.1245626024\H,6.3126
 272567,7.7142230023,-1.0131197809\H,6.3121704588,7.7143172244,0.764333
 615\C,1.7039319041,-8.7386595869,-0.1250788208\H,1.061870085,-8.656918
 2021,0.7635002625\H,1.0622724719,-8.6569694414,-1.0139532351\O,4.95523
 1039,9.0163266392,-0.1248165304\O,2.4190337745,-9.959214539,-0.1248818
 205\C,1.5829989905,-11.1022131461,-0.1250405145\H,0.9366745375,-11.117
 0206549,-1.0139094235\H,0.9362725543,-11.1169735447,0.7635367578\C,5.7
 910857686,10.1594568026,-0.1246352302\H,6.4380485056,10.1741597133,-1.
 0130409387\H,6.4371689661,10.174525503,0.7644051036\C,4.8939037549,11.
 3844100489,-0.1253211366\H,4.2454193302,11.3679427428,0.7631260236\H,4
 .2463887031,11.3676709122,-1.0144695766\O,5.7300657185,12.524210978,-0
 .1250407369\C,5.0072917455,13.737976144,-0.1255757284\H,4.3707129205,1
 3.8299849523,0.7662714279\H,5.7366980071,14.5483849957,-0.1253047874\H
 ,4.3716376109,13.8297516005,-1.0181064707\C,2.4799881098,-12.32730788,
 -0.1248049589\H,3.1281913914,-12.3108306632,-1.0134569021\H,3.12778970
 1,-12.3107827233,0.7641389568\O,1.643646476,-13.4669768596,-0.12496322
 35\C,2.3662291087,-14.680855975,-0.1247646492\H,1.6366949274,-15.49114
 96807,-0.1249076521\H,3.0025340556,-14.7728739419,-1.0168064465\H,3.00
 21283024,-14.7728234758,0.7675716301\H,7.8439352041,-1.3523947821,-0.1
 236782953\H,-0.4682166495,0.4098486685,-0.1257708879\\Version=ES64L-G1
 6RevA.03\State=1-A\HF=-2257.2813542\RMSD=4.705e-09\RMSF=1.046e-05\Dipo
 le=0.000043,0.0000668,-0.0001436\Quadrupole=-7.0208511,21.8870352,-14.
 8661841,-9.6237059,0.0021481,-0.0067236\PG=C01 [X(C22H34O8S2)]\\@


 SI MONUMENTUM REQUIRIS, CIRCUMSPICE
     -- FROM SIR CHRISTOPHER WREN'S TOMBSTONE
 Job cpu time:       0 days  5 hours 20 minutes 48.5 seconds.
 Elapsed time:       0 days  0 hours 20 minutes 10.7 seconds.
 File lengths (MBytes):  RWF=    392 Int=      0 D2E=      0 Chk=     48 Scr=      1
 Normal termination of Gaussian 16 at Mon Jan 13 12:04:46 2020.
