 Entering Gaussian System, Link 0=g16
 Input=O3G_1m_0sc_opt.gjf
 Output=O3G_1m_0sc_opt.log
 Initial command:
 /apps/gaussian/g16-a03/l1.exe "/tmp/pbs.954711.pbs/Gau-30851.inp" -scrdir="/tmp/pbs.954711.pbs/"
 Entering Link 1 = /apps/gaussian/g16-a03/l1.exe PID=     30852.
  
 Copyright (c) 1988,1990,1992,1993,1995,1998,2003,2009,2016,
            Gaussian, Inc.  All Rights Reserved.
  
 This is part of the Gaussian(R) 16 program.  It is based on
 the Gaussian(R) 09 system (copyright 2009, Gaussian, Inc.),
 the Gaussian(R) 03 system (copyright 2003, Gaussian, Inc.),
 the Gaussian(R) 98 system (copyright 1998, Gaussian, Inc.),
 the Gaussian(R) 94 system (copyright 1995, Gaussian, Inc.),
 the Gaussian 92(TM) system (copyright 1992, Gaussian, Inc.),
 the Gaussian 90(TM) system (copyright 1990, Gaussian, Inc.),
 the Gaussian 88(TM) system (copyright 1988, Gaussian, Inc.),
 the Gaussian 86(TM) system (copyright 1986, Carnegie Mellon
 University), and the Gaussian 82(TM) system (copyright 1983,
 Carnegie Mellon University). Gaussian is a federally registered
 trademark of Gaussian, Inc.
  
 This software contains proprietary and confidential information,
 including trade secrets, belonging to Gaussian, Inc.
  
 This software is provided under written license and may be
 used, copied, transmitted, or stored only in accord with that
 written license.
  
 The following legend is applicable only to US Government
 contracts under FAR:
  
                    RESTRICTED RIGHTS LEGEND
  
 Use, reproduction and disclosure by the US Government is
 subject to restrictions as set forth in subparagraphs (a)
 and (c) of the Commercial Computer Software - Restricted
 Rights clause in FAR 52.227-19.
  
 Gaussian, Inc.
 340 Quinnipiac St., Bldg. 40, Wallingford CT 06492
  
  
 ---------------------------------------------------------------
 Warning -- This program may not be used in any manner that
 competes with the business of Gaussian, Inc. or will provide
 assistance to any competitor of Gaussian, Inc.  The licensee
 of this program is prohibited from giving any competitor of
 Gaussian, Inc. access to this program.  By using this program,
 the user acknowledges that Gaussian, Inc. is engaged in the
 business of creating and licensing software in the field of
 computational chemistry and represents and warrants to the
 licensee that it is not a competitor of Gaussian, Inc. and that
 it will not use this program in any manner prohibited above.
 ---------------------------------------------------------------
  

 Cite this work as:
 Gaussian 16, Revision A.03,
 M. J. Frisch, G. W. Trucks, H. B. Schlegel, G. E. Scuseria, 
 M. A. Robb, J. R. Cheeseman, G. Scalmani, V. Barone, 
 G. A. Petersson, H. Nakatsuji, X. Li, M. Caricato, A. V. Marenich, 
 J. Bloino, B. G. Janesko, R. Gomperts, B. Mennucci, H. P. Hratchian, 
 J. V. Ortiz, A. F. Izmaylov, J. L. Sonnenberg, D. Williams-Young, 
 F. Ding, F. Lipparini, F. Egidi, J. Goings, B. Peng, A. Petrone, 
 T. Henderson, D. Ranasinghe, V. G. Zakrzewski, J. Gao, N. Rega, 
 G. Zheng, W. Liang, M. Hada, M. Ehara, K. Toyota, R. Fukuda, 
 J. Hasegawa, M. Ishida, T. Nakajima, Y. Honda, O. Kitao, H. Nakai, 
 T. Vreven, K. Throssell, J. A. Montgomery, Jr., J. E. Peralta, 
 F. Ogliaro, M. J. Bearpark, J. J. Heyd, E. N. Brothers, K. N. Kudin, 
 V. N. Staroverov, T. A. Keith, R. Kobayashi, J. Normand, 
 K. Raghavachari, A. P. Rendell, J. C. Burant, S. S. Iyengar, 
 J. Tomasi, M. Cossi, J. M. Millam, M. Klene, C. Adamo, R. Cammi, 
 J. W. Ochterski, R. L. Martin, K. Morokuma, O. Farkas, 
 J. B. Foresman, and D. J. Fox, Gaussian, Inc., Wallingford CT, 2016.
 
 ******************************************
 Gaussian 16:  ES64L-G16RevA.03 25-Dec-2016
                13-Jan-2020 
 ******************************************
 %mem=50GB
 %nprocshared=16
 Will use up to   16 processors via shared memory.
 ---------------------
 #p opt b3lyp/6-311g**
 ---------------------
 1/18=20,19=15,26=3,38=1/1,3;
 2/9=110,12=2,17=6,18=5,40=1/2;
 3/5=4,6=6,7=101,11=2,25=1,30=1,71=1,74=-5/1,2,3;
 4//1;
 5/5=2,38=5/2;
 6/7=2,8=2,9=2,10=2,28=1/1;
 7//1,2,3,16;
 1/18=20,19=15,26=3/3(2);
 2/9=110/2;
 99//99;
 2/9=110/2;
 3/5=4,6=6,7=101,11=2,25=1,30=1,71=1,74=-5/1,2,3;
 4/5=5,16=3,69=1/1;
 5/5=2,38=5/2;
 7//1,2,3,16;
 1/18=20,19=15,26=3/3(-5);
 2/9=110/2;
 6/7=2,8=2,9=2,10=2,19=2,28=1/1;
 99/9=1/99;
 Leave Link    1 at Mon Jan 13 13:05:05 2020, MaxMem=  6710886400 cpu:               0.3 elap:               0.0
 (Enter /apps/gaussian/g16-a03/l101.exe)
 ------------------
 O3G_1m_0sc_opt.pdb
 ------------------
 Symbolic Z-matrix:
 Charge =  0 Multiplicity = 1
 C                    -5.7       0.668    -0.051 
 C                    -4.471     1.308    -0.051 
 C                    -4.55      2.73     -0.051 
 C                    -5.842     3.172    -0.051 
 S                    -6.981     1.874    -0.051 
 O                    -3.325     0.568    -0.051 
 H                    -3.695     3.389    -0.051 
 C                    -5.965    -0.751    -0.051 
 C                    -7.194    -1.391    -0.051 
 C                    -7.114    -2.814    -0.051 
 C                    -5.823    -3.255    -0.051 
 S                    -4.684    -1.957    -0.051 
 O                    -8.34     -0.652    -0.051 
 H                    -7.97     -3.473    -0.051 
 C                    -2.078     1.258    -0.051 
 H                    -1.984     1.889     0.839 
 H                    -1.984     1.889    -0.942 
 C                    -0.987     0.203    -0.051 
 H                    -1.085    -0.436     0.838 
 H                    -1.085    -0.436    -0.94 
 O                     0.249     0.891    -0.051 
 C                     1.374     0.031    -0.051 
 H                     1.375    -0.616     0.838 
 H                     1.375    -0.616    -0.94 
 C                     2.617     0.904    -0.051 
 H                     2.616     1.551     0.838 
 H                     2.616     1.551    -0.94 
 O                     3.739     0.043    -0.051 
 C                     4.977     0.731    -0.051 
 H                     5.071     1.37      0.837 
 H                     5.072     1.37     -0.94 
 C                     6.081    -0.311    -0.051 
 H                     5.985    -0.952    -0.939 
 H                     5.985    -0.952     0.838 
 O                     7.316     0.378    -0.051 
 C                     8.431    -0.489    -0.051 
 H                     8.443    -1.132    -0.943 
 H                     9.325     0.134    -0.051 
 H                     8.443    -1.132     0.842 
 C                    -9.531    -1.287    -0.051 
 H                    -9.014    -1.661     0.839 
 H                    -9.015    -1.661    -0.942 
 C                    -10.736   -0.361    -0.045 
 H                    -10.708    0.282     0.844 
 H                    -10.715    0.284    -0.934 
 O                    -11.884   -1.187    -0.04 
 C                    -13.102   -0.461    -0.035 
 H                    -13.172    0.18      0.855 
 H                    -13.179    0.181    -0.923 
 C                    -14.236   -1.47     -0.031 
 H                    -14.157   -2.114     0.857 
 H                    -14.165   -2.113    -0.921 
 O                    -15.45    -0.743    -0.026 
 C                    -16.601   -1.568    -0.021 
 H                    -16.617   -2.215     0.866 
 H                    -16.626   -2.214    -0.911 
 C                    -17.817   -0.659    -0.016 
 H                    -17.798   -0.011    -0.903 
 H                    -17.79    -0.013     0.874 
 O                    -18.965   -1.485    -0.011 
 C                    -20.171   -0.75     -0.005 
 H                    -20.261   -0.114    -0.897 
 H                    -20.989   -1.472    -0.003 
 H                    -20.253   -0.114     0.888 
 H                    -5.983     4.212    -0.051 
 H                    -5.316    -4.174    -0.051 
 
 ITRead=  0  0  0  0  0  0  0  0  0  0  0  0  0  0  0  0  0  0  0  0
 ITRead=  0  0  0  0  0  0  0  0  0  0  0  0  0  0  0  0  0  0  0  0
 ITRead=  0  0  0  0  0  0  0  0  0  0  0  0  0  0  0  0  0  0  0  0
 ITRead=  0  0  0  0  0  0
 MicOpt= -1 -1 -1 -1 -1 -1 -1 -1 -1 -1 -1 -1 -1 -1 -1 -1 -1 -1 -1 -1
 MicOpt= -1 -1 -1 -1 -1 -1 -1 -1 -1 -1 -1 -1 -1 -1 -1 -1 -1 -1 -1 -1
 MicOpt= -1 -1 -1 -1 -1 -1 -1 -1 -1 -1 -1 -1 -1 -1 -1 -1 -1 -1 -1 -1
 MicOpt= -1 -1 -1 -1 -1 -1
 NAtoms=     66 NQM=       66 NQMF=       0 NMMI=      0 NMMIF=      0
                NMic=       0 NMicF=      0.
                    Isotopes and Nuclear Properties:
 (Nuclear quadrupole moments (NQMom) in fm**2, nuclear magnetic moments (NMagM)
  in nuclear magnetons)

  Atom         1           2           3           4           5           6           7           8           9          10
 IAtWgt=          12          12          12          12          32          16           1          12          12          12
 AtmWgt=  12.0000000  12.0000000  12.0000000  12.0000000  31.9720718  15.9949146   1.0078250  12.0000000  12.0000000  12.0000000
 NucSpn=           0           0           0           0           0           0           1           0           0           0
 AtZEff=  -0.0000000  -0.0000000  -0.0000000  -0.0000000  -0.0000000  -0.0000000  -0.0000000  -0.0000000  -0.0000000  -0.0000000
 NQMom=    0.0000000   0.0000000   0.0000000   0.0000000   0.0000000   0.0000000   0.0000000   0.0000000   0.0000000   0.0000000
 NMagM=    0.0000000   0.0000000   0.0000000   0.0000000   0.0000000   0.0000000   2.7928460   0.0000000   0.0000000   0.0000000
 AtZNuc=   6.0000000   6.0000000   6.0000000   6.0000000  16.0000000   8.0000000   1.0000000   6.0000000   6.0000000   6.0000000

  Atom        11          12          13          14          15          16          17          18          19          20
 IAtWgt=          12          32          16           1          12           1           1          12           1           1
 AtmWgt=  12.0000000  31.9720718  15.9949146   1.0078250  12.0000000   1.0078250   1.0078250  12.0000000   1.0078250   1.0078250
 NucSpn=           0           0           0           1           0           1           1           0           1           1
 AtZEff=  -0.0000000  -0.0000000  -0.0000000  -0.0000000  -0.0000000  -0.0000000  -0.0000000  -0.0000000  -0.0000000  -0.0000000
 NQMom=    0.0000000   0.0000000   0.0000000   0.0000000   0.0000000   0.0000000   0.0000000   0.0000000   0.0000000   0.0000000
 NMagM=    0.0000000   0.0000000   0.0000000   2.7928460   0.0000000   2.7928460   2.7928460   0.0000000   2.7928460   2.7928460
 AtZNuc=   6.0000000  16.0000000   8.0000000   1.0000000   6.0000000   1.0000000   1.0000000   6.0000000   1.0000000   1.0000000

  Atom        21          22          23          24          25          26          27          28          29          30
 IAtWgt=          16          12           1           1          12           1           1          16          12           1
 AtmWgt=  15.9949146  12.0000000   1.0078250   1.0078250  12.0000000   1.0078250   1.0078250  15.9949146  12.0000000   1.0078250
 NucSpn=           0           0           1           1           0           1           1           0           0           1
 AtZEff=  -0.0000000  -0.0000000  -0.0000000  -0.0000000  -0.0000000  -0.0000000  -0.0000000  -0.0000000  -0.0000000  -0.0000000
 NQMom=    0.0000000   0.0000000   0.0000000   0.0000000   0.0000000   0.0000000   0.0000000   0.0000000   0.0000000   0.0000000
 NMagM=    0.0000000   0.0000000   2.7928460   2.7928460   0.0000000   2.7928460   2.7928460   0.0000000   0.0000000   2.7928460
 AtZNuc=   8.0000000   6.0000000   1.0000000   1.0000000   6.0000000   1.0000000   1.0000000   8.0000000   6.0000000   1.0000000

  Atom        31          32          33          34          35          36          37          38          39          40
 IAtWgt=           1          12           1           1          16          12           1           1           1          12
 AtmWgt=   1.0078250  12.0000000   1.0078250   1.0078250  15.9949146  12.0000000   1.0078250   1.0078250   1.0078250  12.0000000
 NucSpn=           1           0           1           1           0           0           1           1           1           0
 AtZEff=  -0.0000000  -0.0000000  -0.0000000  -0.0000000  -0.0000000  -0.0000000  -0.0000000  -0.0000000  -0.0000000  -0.0000000
 NQMom=    0.0000000   0.0000000   0.0000000   0.0000000   0.0000000   0.0000000   0.0000000   0.0000000   0.0000000   0.0000000
 NMagM=    2.7928460   0.0000000   2.7928460   2.7928460   0.0000000   0.0000000   2.7928460   2.7928460   2.7928460   0.0000000
 AtZNuc=   1.0000000   6.0000000   1.0000000   1.0000000   8.0000000   6.0000000   1.0000000   1.0000000   1.0000000   6.0000000

  Atom        41          42          43          44          45          46          47          48          49          50
 IAtWgt=           1           1          12           1           1          16          12           1           1          12
 AtmWgt=   1.0078250   1.0078250  12.0000000   1.0078250   1.0078250  15.9949146  12.0000000   1.0078250   1.0078250  12.0000000
 NucSpn=           1           1           0           1           1           0           0           1           1           0
 AtZEff=  -0.0000000  -0.0000000  -0.0000000  -0.0000000  -0.0000000  -0.0000000  -0.0000000  -0.0000000  -0.0000000  -0.0000000
 NQMom=    0.0000000   0.0000000   0.0000000   0.0000000   0.0000000   0.0000000   0.0000000   0.0000000   0.0000000   0.0000000
 NMagM=    2.7928460   2.7928460   0.0000000   2.7928460   2.7928460   0.0000000   0.0000000   2.7928460   2.7928460   0.0000000
 AtZNuc=   1.0000000   1.0000000   6.0000000   1.0000000   1.0000000   8.0000000   6.0000000   1.0000000   1.0000000   6.0000000

  Atom        51          52          53          54          55          56          57          58          59          60
 IAtWgt=           1           1          16          12           1           1          12           1           1          16
 AtmWgt=   1.0078250   1.0078250  15.9949146  12.0000000   1.0078250   1.0078250  12.0000000   1.0078250   1.0078250  15.9949146
 NucSpn=           1           1           0           0           1           1           0           1           1           0
 AtZEff=  -0.0000000  -0.0000000  -0.0000000  -0.0000000  -0.0000000  -0.0000000  -0.0000000  -0.0000000  -0.0000000  -0.0000000
 NQMom=    0.0000000   0.0000000   0.0000000   0.0000000   0.0000000   0.0000000   0.0000000   0.0000000   0.0000000   0.0000000
 NMagM=    2.7928460   2.7928460   0.0000000   0.0000000   2.7928460   2.7928460   0.0000000   2.7928460   2.7928460   0.0000000
 AtZNuc=   1.0000000   1.0000000   8.0000000   6.0000000   1.0000000   1.0000000   6.0000000   1.0000000   1.0000000   8.0000000

  Atom        61          62          63          64          65          66
 IAtWgt=          12           1           1           1           1           1
 AtmWgt=  12.0000000   1.0078250   1.0078250   1.0078250   1.0078250   1.0078250
 NucSpn=           0           1           1           1           1           1
 AtZEff=  -0.0000000  -0.0000000  -0.0000000  -0.0000000  -0.0000000  -0.0000000
 NQMom=    0.0000000   0.0000000   0.0000000   0.0000000   0.0000000   0.0000000
 NMagM=    0.0000000   2.7928460   2.7928460   2.7928460   2.7928460   2.7928460
 AtZNuc=   6.0000000   1.0000000   1.0000000   1.0000000   1.0000000   1.0000000
 Leave Link  101 at Mon Jan 13 13:05:06 2020, MaxMem=  6710886400 cpu:               9.7 elap:               0.6
 (Enter /apps/gaussian/g16-a03/l103.exe)

 GradGradGradGradGradGradGradGradGradGradGradGradGradGradGradGradGradGrad
 Berny optimization.
 Initialization pass.
                           ----------------------------
                           !    Initial Parameters    !
                           ! (Angstroms and Degrees)  !
 --------------------------                            --------------------------
 ! Name  Definition              Value          Derivative Info.                !
 --------------------------------------------------------------------------------
 ! R1    R(1,2)                  1.3857         estimate D2E/DX2                !
 ! R2    R(1,5)                  1.7594         estimate D2E/DX2                !
 ! R3    R(1,8)                  1.4435         estimate D2E/DX2                !
 ! R4    R(2,3)                  1.4242         estimate D2E/DX2                !
 ! R5    R(2,6)                  1.3642         estimate D2E/DX2                !
 ! R6    R(3,4)                  1.3655         estimate D2E/DX2                !
 ! R7    R(3,7)                  1.0795         estimate D2E/DX2                !
 ! R8    R(4,5)                  1.7269         estimate D2E/DX2                !
 ! R9    R(4,65)                 1.0495         estimate D2E/DX2                !
 ! R10   R(6,15)                 1.4252         estimate D2E/DX2                !
 ! R11   R(8,9)                  1.3857         estimate D2E/DX2                !
 ! R12   R(8,12)                 1.7594         estimate D2E/DX2                !
 ! R13   R(9,10)                 1.4252         estimate D2E/DX2                !
 ! R14   R(9,13)                 1.3636         estimate D2E/DX2                !
 ! R15   R(10,11)                1.3642         estimate D2E/DX2                !
 ! R16   R(10,14)                1.0803         estimate D2E/DX2                !
 ! R17   R(11,12)                1.7269         estimate D2E/DX2                !
 ! R18   R(11,66)                1.0496         estimate D2E/DX2                !
 ! R19   R(13,40)                1.3497         estimate D2E/DX2                !
 ! R20   R(15,16)                1.095          estimate D2E/DX2                !
 ! R21   R(15,17)                1.0958         estimate D2E/DX2                !
 ! R22   R(15,18)                1.5177         estimate D2E/DX2                !
 ! R23   R(18,19)                1.0992         estimate D2E/DX2                !
 ! R24   R(18,20)                1.0992         estimate D2E/DX2                !
 ! R25   R(18,21)                1.4146         estimate D2E/DX2                !
 ! R26   R(21,22)                1.4161         estimate D2E/DX2                !
 ! R27   R(22,23)                1.0995         estimate D2E/DX2                !
 ! R28   R(22,24)                1.0995         estimate D2E/DX2                !
 ! R29   R(22,25)                1.5189         estimate D2E/DX2                !
 ! R30   R(25,26)                1.0995         estimate D2E/DX2                !
 ! R31   R(25,27)                1.0995         estimate D2E/DX2                !
 ! R32   R(25,28)                1.4143         estimate D2E/DX2                !
 ! R33   R(28,29)                1.4163         estimate D2E/DX2                !
 ! R34   R(29,30)                1.098          estimate D2E/DX2                !
 ! R35   R(29,31)                1.0989         estimate D2E/DX2                !
 ! R36   R(29,32)                1.5181         estimate D2E/DX2                !
 ! R37   R(32,33)                1.0994         estimate D2E/DX2                !
 ! R38   R(32,34)                1.1002         estimate D2E/DX2                !
 ! R39   R(32,35)                1.4142         estimate D2E/DX2                !
 ! R40   R(35,36)                1.4124         estimate D2E/DX2                !
 ! R41   R(36,37)                1.0997         estimate D2E/DX2                !
 ! R42   R(36,38)                1.0897         estimate D2E/DX2                !
 ! R43   R(36,39)                1.1005         estimate D2E/DX2                !
 ! R44   R(40,41)                1.0951         estimate D2E/DX2                !
 ! R45   R(40,42)                1.0955         estimate D2E/DX2                !
 ! R46   R(40,43)                1.5197         estimate D2E/DX2                !
 ! R47   R(43,44)                1.0975         estimate D2E/DX2                !
 ! R48   R(43,45)                1.0985         estimate D2E/DX2                !
 ! R49   R(43,46)                1.4143         estimate D2E/DX2                !
 ! R50   R(46,47)                1.418          estimate D2E/DX2                !
 ! R51   R(47,48)                1.099          estimate D2E/DX2                !
 ! R52   R(47,49)                1.0985         estimate D2E/DX2                !
 ! R53   R(47,50)                1.5179         estimate D2E/DX2                !
 ! R54   R(50,51)                1.0998         estimate D2E/DX2                !
 ! R55   R(50,52)                1.1003         estimate D2E/DX2                !
 ! R56   R(50,53)                1.415          estimate D2E/DX2                !
 ! R57   R(53,54)                1.4161         estimate D2E/DX2                !
 ! R58   R(54,55)                1.098          estimate D2E/DX2                !
 ! R59   R(54,56)                1.1            estimate D2E/DX2                !
 ! R60   R(54,57)                1.5182         estimate D2E/DX2                !
 ! R61   R(57,58)                1.0987         estimate D2E/DX2                !
 ! R62   R(57,59)                1.1001         estimate D2E/DX2                !
 ! R63   R(57,60)                1.4143         estimate D2E/DX2                !
 ! R64   R(60,61)                1.4123         estimate D2E/DX2                !
 ! R65   R(61,62)                1.0992         estimate D2E/DX2                !
 ! R66   R(61,63)                1.0911         estimate D2E/DX2                !
 ! R67   R(61,64)                1.0994         estimate D2E/DX2                !
 ! A1    A(2,1,5)              109.2192         estimate D2E/DX2                !
 ! A2    A(2,1,8)              128.0864         estimate D2E/DX2                !
 ! A3    A(5,1,8)              122.6945         estimate D2E/DX2                !
 ! A4    A(1,2,3)              114.3284         estimate D2E/DX2                !
 ! A5    A(1,2,6)              119.6405         estimate D2E/DX2                !
 ! A6    A(3,2,6)              126.0311         estimate D2E/DX2                !
 ! A7    A(2,3,4)              112.0659         estimate D2E/DX2                !
 ! A8    A(2,3,7)              124.4438         estimate D2E/DX2                !
 ! A9    A(4,3,7)              123.4903         estimate D2E/DX2                !
 ! A10   A(3,4,5)              112.381          estimate D2E/DX2                !
 ! A11   A(3,4,65)             116.607          estimate D2E/DX2                !
 ! A12   A(5,4,65)             131.012          estimate D2E/DX2                !
 ! A13   A(1,5,4)               92.0056         estimate D2E/DX2                !
 ! A14   A(2,6,15)             118.1917         estimate D2E/DX2                !
 ! A15   A(1,8,9)              128.0864         estimate D2E/DX2                !
 ! A16   A(1,8,12)             122.6945         estimate D2E/DX2                !
 ! A17   A(9,8,12)             109.2192         estimate D2E/DX2                !
 ! A18   A(8,9,10)             114.2904         estimate D2E/DX2                !
 ! A19   A(8,9,13)             119.6758         estimate D2E/DX2                !
 ! A20   A(10,9,13)            126.0338         estimate D2E/DX2                !
 ! A21   A(9,10,11)            112.0777         estimate D2E/DX2                !
 ! A22   A(9,10,14)            124.3735         estimate D2E/DX2                !
 ! A23   A(11,10,14)           123.5488         estimate D2E/DX2                !
 ! A24   A(10,11,12)           112.4071         estimate D2E/DX2                !
 ! A25   A(10,11,66)           137.7449         estimate D2E/DX2                !
 ! A26   A(12,11,66)           109.848          estimate D2E/DX2                !
 ! A27   A(8,12,11)             92.0056         estimate D2E/DX2                !
 ! A28   A(9,13,40)            119.119          estimate D2E/DX2                !
 ! A29   A(6,15,16)            110.7382         estimate D2E/DX2                !
 ! A30   A(6,15,17)            110.7221         estimate D2E/DX2                !
 ! A31   A(6,15,18)            107.0041         estimate D2E/DX2                !
 ! A32   A(16,15,17)           108.7636         estimate D2E/DX2                !
 ! A33   A(16,15,18)           109.8075         estimate D2E/DX2                !
 ! A34   A(17,15,18)           109.7922         estimate D2E/DX2                !
 ! A35   A(15,18,19)           109.878          estimate D2E/DX2                !
 ! A36   A(15,18,20)           109.878          estimate D2E/DX2                !
 ! A37   A(15,18,21)           106.8593         estimate D2E/DX2                !
 ! A38   A(19,18,20)           107.9515         estimate D2E/DX2                !
 ! A39   A(19,18,21)           111.1394         estimate D2E/DX2                !
 ! A40   A(20,18,21)           111.1394         estimate D2E/DX2                !
 ! A41   A(18,21,22)           113.5023         estimate D2E/DX2                !
 ! A42   A(21,22,23)           110.9832         estimate D2E/DX2                !
 ! A43   A(21,22,24)           110.9832         estimate D2E/DX2                !
 ! A44   A(21,22,25)           107.5225         estimate D2E/DX2                !
 ! A45   A(23,22,24)           107.9069         estimate D2E/DX2                !
 ! A46   A(23,22,25)           109.7221         estimate D2E/DX2                !
 ! A47   A(24,22,25)           109.7221         estimate D2E/DX2                !
 ! A48   A(22,25,26)           109.7221         estimate D2E/DX2                !
 ! A49   A(22,25,27)           109.7221         estimate D2E/DX2                !
 ! A50   A(22,25,28)           107.4165         estimate D2E/DX2                !
 ! A51   A(26,25,27)           107.9069         estimate D2E/DX2                !
 ! A52   A(26,25,28)           111.0362         estimate D2E/DX2                !
 ! A53   A(27,25,28)           111.0362         estimate D2E/DX2                !
 ! A54   A(25,28,29)           113.4356         estimate D2E/DX2                !
 ! A55   A(28,29,30)           110.9476         estimate D2E/DX2                !
 ! A56   A(28,29,31)           110.9786         estimate D2E/DX2                !
 ! A57   A(28,29,32)           107.5924         estimate D2E/DX2                !
 ! A58   A(30,29,31)           107.9648         estimate D2E/DX2                !
 ! A59   A(30,29,32)           109.7055         estimate D2E/DX2                !
 ! A60   A(31,29,32)           109.6485         estimate D2E/DX2                !
 ! A61   A(29,32,33)           109.676          estimate D2E/DX2                !
 ! A62   A(29,32,34)           109.6609         estimate D2E/DX2                !
 ! A63   A(29,32,35)           107.498          estimate D2E/DX2                !
 ! A64   A(33,32,34)           107.7795         estimate D2E/DX2                !
 ! A65   A(33,32,35)           111.12           estimate D2E/DX2                !
 ! A66   A(34,32,35)           111.1038         estimate D2E/DX2                !
 ! A67   A(32,35,36)           112.9752         estimate D2E/DX2                !
 ! A68   A(35,36,37)           111.5642         estimate D2E/DX2                !
 ! A69   A(35,36,38)           107.2607         estimate D2E/DX2                !
 ! A70   A(35,36,39)           111.5475         estimate D2E/DX2                !
 ! A71   A(37,36,38)           108.9871         estimate D2E/DX2                !
 ! A72   A(37,36,39)           108.4489         estimate D2E/DX2                !
 ! A73   A(38,36,39)           108.9726         estimate D2E/DX2                !
 ! A74   A(13,40,41)            75.1724         estimate D2E/DX2                !
 ! A75   A(13,40,42)            75.2248         estimate D2E/DX2                !
 ! A76   A(13,40,43)           114.3938         estimate D2E/DX2                !
 ! A77   A(41,40,42)           108.7869         estimate D2E/DX2                !
 ! A78   A(41,40,43)           125.3957         estimate D2E/DX2                !
 ! A79   A(42,40,43)           125.7842         estimate D2E/DX2                !
 ! A80   A(40,43,44)           109.8739         estimate D2E/DX2                !
 ! A81   A(40,43,45)           109.8408         estimate D2E/DX2                !
 ! A82   A(40,43,46)           106.7241         estimate D2E/DX2                !
 ! A83   A(44,43,45)           108.1212         estimate D2E/DX2                !
 ! A84   A(44,43,46)           111.101          estimate D2E/DX2                !
 ! A85   A(45,43,46)           111.1797         estimate D2E/DX2                !
 ! A86   A(43,46,47)           113.4676         estimate D2E/DX2                !
 ! A87   A(46,47,48)           110.866          estimate D2E/DX2                !
 ! A88   A(46,47,49)           110.8916         estimate D2E/DX2                !
 ! A89   A(46,47,50)           107.5412         estimate D2E/DX2                !
 ! A90   A(48,47,49)           108.0172         estimate D2E/DX2                !
 ! A91   A(48,47,50)           109.7538         estimate D2E/DX2                !
 ! A92   A(49,47,50)           109.771          estimate D2E/DX2                !
 ! A93   A(47,50,51)           109.7374         estimate D2E/DX2                !
 ! A94   A(47,50,52)           109.763          estimate D2E/DX2                !
 ! A95   A(47,50,53)           107.4235         estimate D2E/DX2                !
 ! A96   A(51,50,52)           107.8353         estimate D2E/DX2                !
 ! A97   A(51,50,53)           111.0768         estimate D2E/DX2                !
 ! A98   A(52,50,53)           111.006          estimate D2E/DX2                !
 ! A99   A(50,53,54)           113.4536         estimate D2E/DX2                !
 ! A100  A(53,54,55)           110.9757         estimate D2E/DX2                !
 ! A101  A(53,54,56)           110.9613         estimate D2E/DX2                !
 ! A102  A(53,54,57)           107.5894         estimate D2E/DX2                !
 ! A103  A(55,54,56)           107.8916         estimate D2E/DX2                !
 ! A104  A(55,54,57)           109.7836         estimate D2E/DX2                !
 ! A105  A(56,54,57)           109.6379         estimate D2E/DX2                !
 ! A106  A(54,57,58)           109.6717         estimate D2E/DX2                !
 ! A107  A(54,57,59)           109.5484         estimate D2E/DX2                !
 ! A108  A(54,57,60)           107.4857         estimate D2E/DX2                !
 ! A109  A(58,57,59)           107.8423         estimate D2E/DX2                !
 ! A110  A(58,57,60)           111.1842         estimate D2E/DX2                !
 ! A111  A(59,57,60)           111.1022         estimate D2E/DX2                !
 ! A112  A(57,60,61)           112.9048         estimate D2E/DX2                !
 ! A113  A(60,61,62)           111.5663         estimate D2E/DX2                !
 ! A114  A(60,61,63)           107.207          estimate D2E/DX2                !
 ! A115  A(60,61,64)           111.6046         estimate D2E/DX2                !
 ! A116  A(62,61,63)           108.8435         estimate D2E/DX2                !
 ! A117  A(62,61,64)           108.5614         estimate D2E/DX2                !
 ! A118  A(63,61,64)           108.9904         estimate D2E/DX2                !
 ! D1    D(5,1,2,3)              0.0            estimate D2E/DX2                !
 ! D2    D(5,1,2,6)            180.0            estimate D2E/DX2                !
 ! D3    D(8,1,2,3)            180.0            estimate D2E/DX2                !
 ! D4    D(8,1,2,6)              0.0            estimate D2E/DX2                !
 ! D5    D(2,1,5,4)              0.0            estimate D2E/DX2                !
 ! D6    D(8,1,5,4)            180.0            estimate D2E/DX2                !
 ! D7    D(2,1,8,9)            180.0            estimate D2E/DX2                !
 ! D8    D(2,1,8,12)             0.0            estimate D2E/DX2                !
 ! D9    D(5,1,8,9)              0.0            estimate D2E/DX2                !
 ! D10   D(5,1,8,12)           180.0            estimate D2E/DX2                !
 ! D11   D(1,2,3,4)              0.0            estimate D2E/DX2                !
 ! D12   D(1,2,3,7)            180.0            estimate D2E/DX2                !
 ! D13   D(6,2,3,4)            180.0            estimate D2E/DX2                !
 ! D14   D(6,2,3,7)              0.0            estimate D2E/DX2                !
 ! D15   D(1,2,6,15)           180.0            estimate D2E/DX2                !
 ! D16   D(3,2,6,15)             0.0            estimate D2E/DX2                !
 ! D17   D(2,3,4,5)              0.0            estimate D2E/DX2                !
 ! D18   D(2,3,4,65)           180.0            estimate D2E/DX2                !
 ! D19   D(7,3,4,5)            180.0            estimate D2E/DX2                !
 ! D20   D(7,3,4,65)             0.0            estimate D2E/DX2                !
 ! D21   D(3,4,5,1)              0.0            estimate D2E/DX2                !
 ! D22   D(65,4,5,1)           180.0            estimate D2E/DX2                !
 ! D23   D(2,6,15,16)           60.3507         estimate D2E/DX2                !
 ! D24   D(2,6,15,17)          -60.3783         estimate D2E/DX2                !
 ! D25   D(2,6,15,18)          180.0            estimate D2E/DX2                !
 ! D26   D(1,8,9,10)           180.0            estimate D2E/DX2                !
 ! D27   D(1,8,9,13)             0.0            estimate D2E/DX2                !
 ! D28   D(12,8,9,10)            0.0            estimate D2E/DX2                !
 ! D29   D(12,8,9,13)          180.0            estimate D2E/DX2                !
 ! D30   D(1,8,12,11)          180.0            estimate D2E/DX2                !
 ! D31   D(9,8,12,11)            0.0            estimate D2E/DX2                !
 ! D32   D(8,9,10,11)            0.0            estimate D2E/DX2                !
 ! D33   D(8,9,10,14)          180.0            estimate D2E/DX2                !
 ! D34   D(13,9,10,11)         180.0            estimate D2E/DX2                !
 ! D35   D(13,9,10,14)           0.0            estimate D2E/DX2                !
 ! D36   D(8,9,13,40)          180.0            estimate D2E/DX2                !
 ! D37   D(10,9,13,40)           0.0            estimate D2E/DX2                !
 ! D38   D(9,10,11,12)           0.0            estimate D2E/DX2                !
 ! D39   D(9,10,11,66)         180.0            estimate D2E/DX2                !
 ! D40   D(14,10,11,12)        180.0            estimate D2E/DX2                !
 ! D41   D(14,10,11,66)          0.0            estimate D2E/DX2                !
 ! D42   D(10,11,12,8)           0.0            estimate D2E/DX2                !
 ! D43   D(66,11,12,8)         180.0            estimate D2E/DX2                !
 ! D44   D(9,13,40,41)          57.214          estimate D2E/DX2                !
 ! D45   D(9,13,40,42)         -57.2647         estimate D2E/DX2                !
 ! D46   D(9,13,40,43)         179.7516         estimate D2E/DX2                !
 ! D47   D(6,15,18,19)         -59.3176         estimate D2E/DX2                !
 ! D48   D(6,15,18,20)          59.3176         estimate D2E/DX2                !
 ! D49   D(6,15,18,21)         180.0            estimate D2E/DX2                !
 ! D50   D(16,15,18,19)         60.9284         estimate D2E/DX2                !
 ! D51   D(16,15,18,20)        179.5636         estimate D2E/DX2                !
 ! D52   D(16,15,18,21)        -59.754          estimate D2E/DX2                !
 ! D53   D(17,15,18,19)       -179.5356         estimate D2E/DX2                !
 ! D54   D(17,15,18,20)        -60.9004         estimate D2E/DX2                !
 ! D55   D(17,15,18,21)         59.782          estimate D2E/DX2                !
 ! D56   D(15,18,21,22)        180.0            estimate D2E/DX2                !
 ! D57   D(19,18,21,22)         60.1257         estimate D2E/DX2                !
 ! D58   D(20,18,21,22)        -60.1257         estimate D2E/DX2                !
 ! D59   D(18,21,22,23)        -59.9931         estimate D2E/DX2                !
 ! D60   D(18,21,22,24)         59.9931         estimate D2E/DX2                !
 ! D61   D(18,21,22,25)        180.0            estimate D2E/DX2                !
 ! D62   D(21,22,25,26)         59.1959         estimate D2E/DX2                !
 ! D63   D(21,22,25,27)        -59.1959         estimate D2E/DX2                !
 ! D64   D(21,22,25,28)        180.0            estimate D2E/DX2                !
 ! D65   D(23,22,25,26)        -61.6082         estimate D2E/DX2                !
 ! D66   D(23,22,25,27)        180.0            estimate D2E/DX2                !
 ! D67   D(23,22,25,28)         59.1959         estimate D2E/DX2                !
 ! D68   D(24,22,25,26)       -180.0            estimate D2E/DX2                !
 ! D69   D(24,22,25,27)         61.6082         estimate D2E/DX2                !
 ! D70   D(24,22,25,28)        -59.1959         estimate D2E/DX2                !
 ! D71   D(22,25,28,29)        180.0            estimate D2E/DX2                !
 ! D72   D(26,25,28,29)        -60.0284         estimate D2E/DX2                !
 ! D73   D(27,25,28,29)         60.0284         estimate D2E/DX2                !
 ! D74   D(25,28,29,30)         59.9906         estimate D2E/DX2                !
 ! D75   D(25,28,29,31)        -60.042          estimate D2E/DX2                !
 ! D76   D(25,28,29,32)        180.0            estimate D2E/DX2                !
 ! D77   D(28,29,32,33)         59.0719         estimate D2E/DX2                !
 ! D78   D(28,29,32,34)        -59.1003         estimate D2E/DX2                !
 ! D79   D(28,29,32,35)        180.0            estimate D2E/DX2                !
 ! D80   D(30,29,32,33)        179.8656         estimate D2E/DX2                !
 ! D81   D(30,29,32,34)         61.6934         estimate D2E/DX2                !
 ! D82   D(30,29,32,35)        -59.2063         estimate D2E/DX2                !
 ! D83   D(31,29,32,33)        -61.7262         estimate D2E/DX2                !
 ! D84   D(31,29,32,34)       -179.8983         estimate D2E/DX2                !
 ! D85   D(31,29,32,35)         59.202          estimate D2E/DX2                !
 ! D86   D(29,32,35,36)        180.0            estimate D2E/DX2                !
 ! D87   D(33,32,35,36)        -59.9845         estimate D2E/DX2                !
 ! D88   D(34,32,35,36)         60.0125         estimate D2E/DX2                !
 ! D89   D(32,35,36,37)         60.7162         estimate D2E/DX2                !
 ! D90   D(32,35,36,38)        180.0            estimate D2E/DX2                !
 ! D91   D(32,35,36,39)        -60.7435         estimate D2E/DX2                !
 ! D92   D(13,40,43,44)        -59.2008         estimate D2E/DX2                !
 ! D93   D(13,40,43,45)         59.6171         estimate D2E/DX2                !
 ! D94   D(13,40,43,46)       -179.7539         estimate D2E/DX2                !
 ! D95   D(41,40,43,44)         29.5109         estimate D2E/DX2                !
 ! D96   D(41,40,43,45)        148.3289         estimate D2E/DX2                !
 ! D97   D(41,40,43,46)        -91.0421         estimate D2E/DX2                !
 ! D98   D(42,40,43,44)       -148.1517         estimate D2E/DX2                !
 ! D99   D(42,40,43,45)        -29.3337         estimate D2E/DX2                !
 ! D100  D(42,40,43,46)         91.2953         estimate D2E/DX2                !
 ! D101  D(40,43,46,47)       -179.957          estimate D2E/DX2                !
 ! D102  D(44,43,46,47)         60.2791         estimate D2E/DX2                !
 ! D103  D(45,43,46,47)        -60.1886         estimate D2E/DX2                !
 ! D104  D(43,46,47,48)        -60.05           estimate D2E/DX2                !
 ! D105  D(43,46,47,49)         59.9368         estimate D2E/DX2                !
 ! D106  D(43,46,47,50)        179.9614         estimate D2E/DX2                !
 ! D107  D(46,47,50,51)         59.133          estimate D2E/DX2                !
 ! D108  D(46,47,50,52)        -59.2052         estimate D2E/DX2                !
 ! D109  D(46,47,50,53)        179.9994         estimate D2E/DX2                !
 ! D110  D(48,47,50,51)        -61.559          estimate D2E/DX2                !
 ! D111  D(48,47,50,52)       -179.8971         estimate D2E/DX2                !
 ! D112  D(48,47,50,53)         59.3074         estimate D2E/DX2                !
 ! D113  D(49,47,50,51)        179.8659         estimate D2E/DX2                !
 ! D114  D(49,47,50,52)         61.5277         estimate D2E/DX2                !
 ! D115  D(49,47,50,53)        -59.2677         estimate D2E/DX2                !
 ! D116  D(47,50,53,54)       -179.962          estimate D2E/DX2                !
 ! D117  D(51,50,53,54)        -59.9436         estimate D2E/DX2                !
 ! D118  D(52,50,53,54)         60.0298         estimate D2E/DX2                !
 ! D119  D(50,53,54,55)         59.8796         estimate D2E/DX2                !
 ! D120  D(50,53,54,56)        -60.0679         estimate D2E/DX2                !
 ! D121  D(50,53,54,57)        179.9991         estimate D2E/DX2                !
 ! D122  D(53,54,57,58)         59.0046         estimate D2E/DX2                !
 ! D123  D(53,54,57,59)        -59.1743         estimate D2E/DX2                !
 ! D124  D(53,54,57,60)       -179.9995         estimate D2E/DX2                !
 ! D125  D(55,54,57,58)        179.8762         estimate D2E/DX2                !
 ! D126  D(55,54,57,59)         61.6972         estimate D2E/DX2                !
 ! D127  D(55,54,57,60)        -59.1279         estimate D2E/DX2                !
 ! D128  D(56,54,57,58)        -61.7644         estimate D2E/DX2                !
 ! D129  D(56,54,57,59)       -179.9434         estimate D2E/DX2                !
 ! D130  D(56,54,57,60)         59.2315         estimate D2E/DX2                !
 ! D131  D(54,57,60,61)        179.9554         estimate D2E/DX2                !
 ! D132  D(58,57,60,61)        -60.0045         estimate D2E/DX2                !
 ! D133  D(59,57,60,61)         60.1139         estimate D2E/DX2                !
 ! D134  D(57,60,61,62)         60.8413         estimate D2E/DX2                !
 ! D135  D(57,60,61,63)        179.9175         estimate D2E/DX2                !
 ! D136  D(57,60,61,64)        -60.8051         estimate D2E/DX2                !
 --------------------------------------------------------------------------------
 Trust Radius=3.00D-01 FncErr=1.00D-07 GrdErr=1.00D-06 EigMax=2.50D+02 EigMin=1.00D-04
 Number of steps in this run=    331 maximum allowed number of steps=    396.
 GradGradGradGradGradGradGradGradGradGradGradGradGradGradGradGradGradGrad

 Leave Link  103 at Mon Jan 13 13:05:07 2020, MaxMem=  6710886400 cpu:               0.3 elap:               0.0
 (Enter /apps/gaussian/g16-a03/l202.exe)
 Stoichiometry    C22H34O8S2
 Framework group  C1[X(C22H34O8S2)]
 Deg. of freedom   192
 Full point group                 C1      NOp   1
 Largest Abelian subgroup         C1      NOp   1
 Largest concise Abelian subgroup C1      NOp   1
                         Standard orientation:                         
 ---------------------------------------------------------------------
 Center     Atomic      Atomic             Coordinates (Angstroms)
 Number     Number       Type             X           Y           Z
 ---------------------------------------------------------------------
      1          6           0        0.185017    0.870263   -0.006595
      2          6           0        1.450938    1.433717   -0.004657
      3          6           0        1.459261    2.857885   -0.004109
      4          6           0        0.196788    3.378259   -0.005633
      5         16           0       -1.019641    2.152526   -0.007753
      6          8           0        2.549417    0.624854   -0.003465
      7          1           0        2.353051    3.463231   -0.002662
      8          6           0       -0.166474   -0.529822   -0.007602
      9          6           0       -1.432396   -1.093275   -0.009540
     10          6           0       -1.439781   -2.518503   -0.010088
     11          6           0       -0.178246   -3.037817   -0.008565
     12         16           0        1.038183   -1.812084   -0.006444
     13          8           0       -2.530936   -0.285411   -0.010733
     14          1           0       -2.334570   -3.123787   -0.011536
     15          6           0        3.836370    1.237110   -0.001480
     16          1           0        3.967663    1.860825    0.888935
     17          1           0        3.970090    1.861497   -0.892063
     18          6           0        4.860642    0.117212   -0.000507
     19          1           0        4.722442   -0.514914    0.888067
     20          1           0        4.724865   -0.514243   -0.889931
     21          8           0        6.136493    0.728146    0.001463
     22          6           0        7.206655   -0.199204    0.002572
     23          1           0        7.166778   -0.845383    0.891274
     24          1           0        7.169201   -0.844713   -0.886724
     25          6           0        8.500834    0.595953    0.004635
     26          1           0        8.538288    1.241462    0.893931
     27          1           0        8.540711    1.242133   -0.884067
     28          8           0        9.567940   -0.332211    0.005740
     29          6           0       10.845787    0.278601    0.007712
     30          1           0       10.977573    0.910301    0.896130
     31          1           0       10.980993    0.910910   -0.880866
     32          6           0       11.883832   -0.829119    0.008709
     33          1           0       11.749927   -1.462693   -0.879714
     34          1           0       11.747505   -1.463363    0.897284
     35          8           0       13.158746   -0.217126    0.010677
     36          6           0       14.218497   -1.150849    0.011769
     37          1           0       14.192272   -1.793039   -0.880510
     38          1           0       15.149007   -0.583827    0.013251
     39          1           0       14.189840   -1.793712    0.904489
     40          6           0       -3.758623   -0.846203   -0.012618
     41          1           0       -3.266736   -1.251530    0.877901
     42          1           0       -3.265307   -1.250797   -0.903099
     43          6           0       -4.904596    0.151924   -0.007803
     44          1           0       -4.838442    0.791663    0.881529
     45          1           0       -4.842883    0.794759   -0.896477
     46          8           0       -6.101079   -0.602147   -0.004718
     47          6           0       -7.272288    0.197154   -0.001013
     48          1           0       -7.304074    0.840904    0.889188
     49          1           0       -7.308576    0.843002   -0.888820
     50          6           0       -8.466015   -0.740431    0.001006
     51          1           0       -8.427853   -1.388397    0.888815
     52          1           0       -8.433353   -1.386238   -0.889194
     53          8           0       -9.633169    0.059623    0.004718
     54          6           0      -10.832586   -0.693266    0.007799
     55          1           0      -10.889428   -1.338403    0.894479
     56          1           0      -10.895928   -1.336183   -0.882531
     57          6           0      -11.990579    0.288568    0.011591
     58          1           0      -11.930681    0.934519   -0.875085
     59          1           0      -11.925241    0.931362    0.901923
     60          8           0      -13.187063   -0.465503    0.014676
     61          6           0      -14.345743    0.342045    0.019401
     62          1           0      -14.395369    0.982703   -0.872426
     63          1           0      -15.206468   -0.328451    0.019975
     64          1           0      -14.389817    0.981539    0.912583
     65          1           0        0.119809    4.424946   -0.005343
     66          1           0        0.271462   -3.986170   -0.008309
 ---------------------------------------------------------------------
 Rotational constants (GHZ):           0.5327217           0.0179675           0.0174080
 Leave Link  202 at Mon Jan 13 13:05:07 2020, MaxMem=  6710886400 cpu:               0.1 elap:               0.0
 (Enter /apps/gaussian/g16-a03/l301.exe)
 Standard basis: 6-311G(d,p) (5D, 7F)
 Ernie: Thresh=  0.10000D-02 Tol=  0.10000D-05 Strict=F.
 There are   828 symmetry adapted cartesian basis functions of A   symmetry.
 There are   796 symmetry adapted basis functions of A   symmetry.
   796 basis functions,  1324 primitive gaussians,   828 cartesian basis functions
   131 alpha electrons      131 beta electrons
       nuclear repulsion energy      3223.4437184979 Hartrees.
 IExCor=  402 DFT=T Ex+Corr=B3LYP ExCW=0 ScaHFX=  0.200000
 ScaDFX=  0.800000  0.720000  1.000000  0.810000 ScalE2=  1.000000  1.000000
 IRadAn=      5 IRanWt=     -1 IRanGd=            0 ICorTp=0 IEmpDi=  4
 NAtoms=   66 NActive=   66 NUniq=   66 SFac= 1.00D+00 NAtFMM=   60 NAOKFM=T Big=T
 Integral buffers will be    131072 words long.
 Raffenetti 2 integral format.
 Two-electron integral symmetry is turned on.
 Leave Link  301 at Mon Jan 13 13:05:08 2020, MaxMem=  6710886400 cpu:               1.3 elap:               0.1
 (Enter /apps/gaussian/g16-a03/l302.exe)
 NPDir=0 NMtPBC=     1 NCelOv=     1 NCel=       1 NClECP=     1 NCelD=      1
         NCelK=      1 NCelE2=     1 NClLst=     1 CellRange=     0.0.
 One-electron integrals computed using PRISM.
 One-electron integral symmetry used in STVInt
 NBasis=   796 RedAO= T EigKep=  2.90D-04  NBF=   796
 NBsUse=   796 1.00D-06 EigRej= -1.00D+00 NBFU=   796
 Precomputing XC quadrature grid using
 IXCGrd= 4 IRadAn=           5 IRanWt=          -1 IRanGd=           0 AccXCQ= 0.00D+00.
 Generated NRdTot=       0 NPtTot=           0 NUsed=           0 NTot=          32
 NSgBfM=   581   573   573   573   581 MxSgAt=    66 MxSgA2=    66.
 Leave Link  302 at Mon Jan 13 13:05:10 2020, MaxMem=  6710886400 cpu:              29.3 elap:               1.9
 (Enter /apps/gaussian/g16-a03/l303.exe)
 DipDrv:  MaxL=1.
 Leave Link  303 at Mon Jan 13 13:05:11 2020, MaxMem=  6710886400 cpu:               2.3 elap:               0.2
 (Enter /apps/gaussian/g16-a03/l401.exe)
 ExpMin= 7.71D-02 ExpMax= 9.34D+04 ExpMxC= 3.17D+03 IAcc=3 IRadAn=         5 AccDes= 0.00D+00
 Harris functional with IExCor=  402 and IRadAn=       5 diagonalized for initial guess.
 HarFok:  IExCor=  402 AccDes= 0.00D+00 IRadAn=         5 IDoV= 1 UseB2=F ITyADJ=14
 ICtDFT=  3500011 ScaDFX=  1.000000  1.000000  1.000000  1.000000
 FoFCou: FMM=F IPFlag=           0 FMFlag=      100000 FMFlg1=        2001
         NFxFlg=           0 DoJE=T BraDBF=F KetDBF=T FulRan=T
         wScrn=  0.000000 ICntrl=       500 IOpCl=  0 I1Cent=   200000004 NGrid=           0
         NMat0=    1 NMatS0=      1 NMatT0=    0 NMatD0=    1 NMtDS0=    0 NMtDT0=    0
 Petite list used in FoFCou.
 Harris En= -2257.09334090244    
 JPrj=0 DoOrth=F DoCkMO=F.
 Leave Link  401 at Mon Jan 13 13:05:17 2020, MaxMem=  6710886400 cpu:              91.5 elap:               5.8
 (Enter /apps/gaussian/g16-a03/l502.exe)
 Integral symmetry usage will be decided dynamically.
 Closed shell SCF:
 Using DIIS extrapolation, IDIIS=  1040.
 NGot=  6710886400 LenX=  6709493692 LenY=  6708807280
 Requested convergence on RMS density matrix=1.00D-08 within 128 cycles.
 Requested convergence on MAX density matrix=1.00D-06.
 Requested convergence on             energy=1.00D-06.
 No special actions if energy rises.
 Fock matrices will be formed incrementally for  20 cycles.
 Integral accuracy reduced to 1.0D-05 until final iterations.

 Cycle   1  Pass 0  IDiag  1:
 FoFJK:  IHMeth= 1 ICntrl=       0 DoSepK=F KAlg= 0 I1Cent=           0 FoldK=F
 IRaf= 490000000 NMat=       1 IRICut=       1 DoRegI=T DoRafI=F ISym2E= 0 IDoP0=0 IntGTp=1.
 FoFCou: FMM=T IPFlag=           0 FMFlag=      100000 FMFlg1=        2001
         NFxFlg=           0 DoJE=F BraDBF=F KetDBF=F FulRan=T
         wScrn=  0.000000 ICntrl=         0 IOpCl=  0 I1Cent=           0 NGrid=           0
         NMat0=    1 NMatS0=      1 NMatT0=    0 NMatD0=    1 NMtDS0=    0 NMtDT0=    0
 Symmetry not used in FoFCou.
 FMM levels:  10  Number of levels for PrismC:   9
 E= -2256.31952736921    
 DIIS: error= 3.11D-02 at cycle   1 NSaved=   1.
 NSaved= 1 IEnMin= 1 EnMin= -2256.31952736921     IErMin= 1 ErrMin= 3.11D-02
 ErrMax= 3.11D-02  0.00D+00 EMaxC= 1.00D-01 BMatC= 9.52D-01 BMatP= 9.52D-01
 IDIUse=3 WtCom= 6.89D-01 WtEn= 3.11D-01
 Coeff-Com:  0.100D+01
 Coeff-En:   0.100D+01
 Coeff:      0.100D+01
 Gap=     0.078 Goal=   None    Shift=    0.000
 GapD=    0.078 DampG=0.500 DampE=0.500 DampFc=0.2500 IDamp=-1.
 Damping current iteration by 2.50D-01
 RMSDP=2.41D-03 MaxDP=1.42D-01              OVMax= 2.39D-01

 Cycle   2  Pass 0  IDiag  1:
 RMSU=  6.00D-04    CP:  9.95D-01
 E= -2256.61937690152     Delta-E=       -0.299849532317 Rises=F Damp=T
 DIIS: error= 1.48D-02 at cycle   2 NSaved=   2.
 NSaved= 2 IEnMin= 2 EnMin= -2256.61937690152     IErMin= 2 ErrMin= 1.48D-02
 ErrMax= 1.48D-02  0.00D+00 EMaxC= 1.00D-01 BMatC= 2.43D-01 BMatP= 9.52D-01
 IDIUse=3 WtCom= 8.52D-01 WtEn= 1.48D-01
 Coeff-Com: -0.828D+00 0.183D+01
 Coeff-En:   0.000D+00 0.100D+01
 Coeff:     -0.705D+00 0.171D+01
 Gap=     0.210 Goal=   None    Shift=    0.000
 RMSDP=5.76D-04 MaxDP=3.33D-02 DE=-3.00D-01 OVMax= 2.42D-01

 Cycle   3  Pass 0  IDiag  1:
 RMSU=  5.32D-04    CP:  9.92D-01  1.37D+00
 E= -2257.11266657823     Delta-E=       -0.493289676702 Rises=F Damp=F
 DIIS: error= 6.22D-03 at cycle   3 NSaved=   3.
 NSaved= 3 IEnMin= 3 EnMin= -2257.11266657823     IErMin= 3 ErrMin= 6.22D-03
 ErrMax= 6.22D-03  0.00D+00 EMaxC= 1.00D-01 BMatC= 2.17D-02 BMatP= 2.43D-01
 IDIUse=3 WtCom= 9.38D-01 WtEn= 6.22D-02
 Coeff-Com: -0.311D+00 0.647D+00 0.663D+00
 Coeff-En:   0.000D+00 0.000D+00 0.100D+01
 Coeff:     -0.291D+00 0.607D+00 0.684D+00
 Gap=     0.140 Goal=   None    Shift=    0.000
 RMSDP=2.97D-04 MaxDP=3.08D-02 DE=-4.93D-01 OVMax= 6.66D-02

 Cycle   4  Pass 0  IDiag  1:
 RMSU=  1.88D-04    CP:  9.93D-01  1.50D+00  5.92D-01
 E= -2257.12311808960     Delta-E=       -0.010451511373 Rises=F Damp=F
 DIIS: error= 5.27D-03 at cycle   4 NSaved=   4.
 NSaved= 4 IEnMin= 4 EnMin= -2257.12311808960     IErMin= 4 ErrMin= 5.27D-03
 ErrMax= 5.27D-03  0.00D+00 EMaxC= 1.00D-01 BMatC= 1.12D-02 BMatP= 2.17D-02
 IDIUse=3 WtCom= 9.47D-01 WtEn= 5.27D-02
 Coeff-Com: -0.787D-01 0.159D+00 0.419D+00 0.501D+00
 Coeff-En:   0.000D+00 0.000D+00 0.353D+00 0.647D+00
 Coeff:     -0.746D-01 0.150D+00 0.416D+00 0.509D+00
 Gap=     0.139 Goal=   None    Shift=    0.000
 RMSDP=1.35D-04 MaxDP=1.03D-02 DE=-1.05D-02 OVMax= 3.37D-02

 Cycle   5  Pass 0  IDiag  1:
 RMSU=  8.45D-05    CP:  9.92D-01  1.48D+00  7.05D-01  5.47D-01
 E= -2257.13289760582     Delta-E=       -0.009779516220 Rises=F Damp=F
 DIIS: error= 2.05D-03 at cycle   5 NSaved=   5.
 NSaved= 5 IEnMin= 5 EnMin= -2257.13289760582     IErMin= 5 ErrMin= 2.05D-03
 ErrMax= 2.05D-03  0.00D+00 EMaxC= 1.00D-01 BMatC= 9.38D-04 BMatP= 1.12D-02
 IDIUse=3 WtCom= 9.79D-01 WtEn= 2.05D-02
 Coeff-Com: -0.206D-01 0.427D-01 0.203D+00 0.302D+00 0.472D+00
 Coeff-En:   0.000D+00 0.000D+00 0.000D+00 0.000D+00 0.100D+01
 Coeff:     -0.202D-01 0.418D-01 0.199D+00 0.296D+00 0.483D+00
 Gap=     0.141 Goal=   None    Shift=    0.000
 RMSDP=5.18D-05 MaxDP=3.91D-03 DE=-9.78D-03 OVMax= 1.51D-02

 Cycle   6  Pass 0  IDiag  1:
 RMSU=  2.55D-05    CP:  9.92D-01  1.47D+00  7.16D-01  6.40D-01  5.16D-01
 E= -2257.13364957989     Delta-E=       -0.000751974070 Rises=F Damp=F
 DIIS: error= 1.30D-03 at cycle   6 NSaved=   6.
 NSaved= 6 IEnMin= 6 EnMin= -2257.13364957989     IErMin= 6 ErrMin= 1.30D-03
 ErrMax= 1.30D-03  0.00D+00 EMaxC= 1.00D-01 BMatC= 1.79D-04 BMatP= 9.38D-04
 IDIUse=3 WtCom= 9.87D-01 WtEn= 1.30D-02
 Coeff-Com:  0.200D-02-0.237D-02 0.655D-01 0.115D+00 0.324D+00 0.496D+00
 Coeff-En:   0.000D+00 0.000D+00 0.000D+00 0.000D+00 0.190D+00 0.810D+00
 Coeff:      0.197D-02-0.234D-02 0.647D-01 0.113D+00 0.322D+00 0.500D+00
 Gap=     0.141 Goal=   None    Shift=    0.000
 RMSDP=1.97D-05 MaxDP=1.30D-03 DE=-7.52D-04 OVMax= 6.03D-03

 Cycle   7  Pass 0  IDiag  1:
 RMSU=  8.21D-06    CP:  9.92D-01  1.47D+00  7.22D-01  6.12D-01  6.31D-01
                    CP:  4.65D-01
 E= -2257.13381786577     Delta-E=       -0.000168285883 Rises=F Damp=F
 DIIS: error= 4.01D-04 at cycle   7 NSaved=   7.
 NSaved= 7 IEnMin= 7 EnMin= -2257.13381786577     IErMin= 7 ErrMin= 4.01D-04
 ErrMax= 4.01D-04  0.00D+00 EMaxC= 1.00D-01 BMatC= 1.69D-05 BMatP= 1.79D-04
 IDIUse=3 WtCom= 9.96D-01 WtEn= 4.01D-03
 Coeff-Com:  0.308D-02-0.506D-02 0.237D-01 0.441D-01 0.156D+00 0.313D+00
 Coeff-Com:  0.465D+00
 Coeff-En:   0.000D+00 0.000D+00 0.000D+00 0.000D+00 0.000D+00 0.524D-01
 Coeff-En:   0.948D+00
 Coeff:      0.307D-02-0.504D-02 0.236D-01 0.440D-01 0.155D+00 0.312D+00
 Coeff:      0.467D+00
 Gap=     0.141 Goal=   None    Shift=    0.000
 RMSDP=5.55D-06 MaxDP=4.22D-04 DE=-1.68D-04 OVMax= 1.67D-03

 Initial convergence to 1.0D-05 achieved.  Increase integral accuracy.
 Cycle   8  Pass 1  IDiag  1:
 E= -2257.13379557370     Delta-E=        0.000022292074 Rises=F Damp=F
 DIIS: error= 6.28D-05 at cycle   1 NSaved=   1.
 NSaved= 1 IEnMin= 1 EnMin= -2257.13379557370     IErMin= 1 ErrMin= 6.28D-05
 ErrMax= 6.28D-05  0.00D+00 EMaxC= 1.00D-01 BMatC= 1.62D-06 BMatP= 1.62D-06
 IDIUse=1 WtCom= 1.00D+00 WtEn= 0.00D+00
 Coeff-Com:  0.100D+01
 Coeff:      0.100D+01
 Gap=     0.141 Goal=   None    Shift=    0.000
 RMSDP=5.55D-06 MaxDP=4.22D-04 DE= 2.23D-05 OVMax= 5.97D-04

 Cycle   9  Pass 1  IDiag  1:
 RMSU=  1.55D-05    CP:  1.00D+00
 E= -2257.13379507822     Delta-E=        0.000000495482 Rises=F Damp=F
 DIIS: error= 1.36D-04 at cycle   2 NSaved=   2.
 NSaved= 2 IEnMin= 1 EnMin= -2257.13379557370     IErMin= 1 ErrMin= 6.28D-05
 ErrMax= 1.36D-04  0.00D+00 EMaxC= 1.00D-01 BMatC= 2.17D-06 BMatP= 1.62D-06
 IDIUse=3 WtCom= 4.62D-01 WtEn= 5.38D-01
 Coeff-Com:  0.546D+00 0.454D+00
 Coeff-En:   0.577D+00 0.423D+00
 Coeff:      0.563D+00 0.437D+00
 Gap=     0.141 Goal=   None    Shift=    0.000
 RMSDP=2.24D-06 MaxDP=1.73D-04 DE= 4.95D-07 OVMax= 6.75D-04

 Cycle  10  Pass 1  IDiag  1:
 RMSU=  2.22D-06    CP:  1.00D+00  9.80D-01
 E= -2257.13379691241     Delta-E=       -0.000001834193 Rises=F Damp=F
 DIIS: error= 6.10D-05 at cycle   3 NSaved=   3.
 NSaved= 3 IEnMin= 3 EnMin= -2257.13379691241     IErMin= 3 ErrMin= 6.10D-05
 ErrMax= 6.10D-05  0.00D+00 EMaxC= 1.00D-01 BMatC= 2.93D-07 BMatP= 1.62D-06
 IDIUse=1 WtCom= 1.00D+00 WtEn= 0.00D+00
 Coeff-Com:  0.749D-01 0.265D+00 0.660D+00
 Coeff:      0.749D-01 0.265D+00 0.660D+00
 Gap=     0.141 Goal=   None    Shift=    0.000
 RMSDP=9.75D-07 MaxDP=6.06D-05 DE=-1.83D-06 OVMax= 2.73D-04

 Cycle  11  Pass 1  IDiag  1:
 RMSU=  5.35D-07    CP:  1.00D+00  9.95D-01  6.49D-01
 E= -2257.13379712347     Delta-E=       -0.000000211057 Rises=F Damp=F
 DIIS: error= 2.27D-05 at cycle   4 NSaved=   4.
 NSaved= 4 IEnMin= 4 EnMin= -2257.13379712347     IErMin= 4 ErrMin= 2.27D-05
 ErrMax= 2.27D-05  0.00D+00 EMaxC= 1.00D-01 BMatC= 9.59D-08 BMatP= 2.93D-07
 IDIUse=1 WtCom= 1.00D+00 WtEn= 0.00D+00
 Coeff-Com:  0.145D-02 0.144D+00 0.459D+00 0.396D+00
 Coeff:      0.145D-02 0.144D+00 0.459D+00 0.396D+00
 Gap=     0.141 Goal=   None    Shift=    0.000
 RMSDP=3.94D-07 MaxDP=2.84D-05 DE=-2.11D-07 OVMax= 1.08D-04

 Cycle  12  Pass 1  IDiag  1:
 RMSU=  1.33D-07    CP:  1.00D+00  9.94D-01  7.31D-01  3.98D-01
 E= -2257.13379721633     Delta-E=       -0.000000092861 Rises=F Damp=F
 DIIS: error= 2.12D-06 at cycle   5 NSaved=   5.
 NSaved= 5 IEnMin= 5 EnMin= -2257.13379721633     IErMin= 5 ErrMin= 2.12D-06
 ErrMax= 2.12D-06  0.00D+00 EMaxC= 1.00D-01 BMatC= 2.13D-09 BMatP= 9.59D-08
 IDIUse=1 WtCom= 1.00D+00 WtEn= 0.00D+00
 Coeff-Com: -0.235D-02 0.709D-01 0.232D+00 0.225D+00 0.474D+00
 Coeff:     -0.235D-02 0.709D-01 0.232D+00 0.225D+00 0.474D+00
 Gap=     0.141 Goal=   None    Shift=    0.000
 RMSDP=5.88D-08 MaxDP=5.40D-06 DE=-9.29D-08 OVMax= 1.44D-05

 Cycle  13  Pass 1  IDiag  1:
 RMSU=  4.04D-08    CP:  1.00D+00  9.95D-01  7.29D-01  4.39D-01  7.33D-01
 E= -2257.13379721824     Delta-E=       -0.000000001916 Rises=F Damp=F
 DIIS: error= 5.02D-07 at cycle   6 NSaved=   6.
 NSaved= 6 IEnMin= 6 EnMin= -2257.13379721824     IErMin= 6 ErrMin= 5.02D-07
 ErrMax= 5.02D-07  0.00D+00 EMaxC= 1.00D-01 BMatC= 1.59D-10 BMatP= 2.13D-09
 IDIUse=1 WtCom= 1.00D+00 WtEn= 0.00D+00
 Coeff-Com: -0.144D-02 0.286D-01 0.929D-01 0.962D-01 0.268D+00 0.516D+00
 Coeff:     -0.144D-02 0.286D-01 0.929D-01 0.962D-01 0.268D+00 0.516D+00
 Gap=     0.141 Goal=   None    Shift=    0.000
 RMSDP=1.88D-08 MaxDP=1.91D-06 DE=-1.92D-09 OVMax= 5.64D-06

 Cycle  14  Pass 1  IDiag  1:
 RMSU=  1.48D-08    CP:  1.00D+00  9.95D-01  7.27D-01  4.32D-01  7.23D-01
                    CP:  7.42D-01
 E= -2257.13379721837     Delta-E=       -0.000000000123 Rises=F Damp=F
 DIIS: error= 1.70D-07 at cycle   7 NSaved=   7.
 NSaved= 7 IEnMin= 7 EnMin= -2257.13379721837     IErMin= 7 ErrMin= 1.70D-07
 ErrMax= 1.70D-07  0.00D+00 EMaxC= 1.00D-01 BMatC= 1.23D-11 BMatP= 1.59D-10
 IDIUse=1 WtCom= 1.00D+00 WtEn= 0.00D+00
 Coeff-Com: -0.384D-03 0.526D-02 0.162D-01 0.194D-01 0.674D-01 0.252D+00
 Coeff-Com:  0.640D+00
 Coeff:     -0.384D-03 0.526D-02 0.162D-01 0.194D-01 0.674D-01 0.252D+00
 Coeff:      0.640D+00
 Gap=     0.141 Goal=   None    Shift=    0.000
 RMSDP=6.48D-09 MaxDP=5.94D-07 DE=-1.23D-10 OVMax= 2.11D-06

 SCF Done:  E(RB3LYP) =  -2257.13379722     A.U. after   14 cycles
            NFock= 14  Conv=0.65D-08     -V/T= 2.0026
 KE= 2.251301657133D+03 PE=-1.175574472944D+04 EE= 4.023865556590D+03
 Leave Link  502 at Mon Jan 13 13:07:12 2020, MaxMem=  6710886400 cpu:            1823.8 elap:             114.4
 (Enter /apps/gaussian/g16-a03/l601.exe)
 Copying SCF densities to generalized density rwf, IOpCl= 0 IROHF=0.

 **********************************************************************

            Population analysis using the SCF density.

 **********************************************************************

 Orbital symmetries:
       Occupied  (A) (A) (A) (A) (A) (A) (A) (A) (A) (A) (A) (A)
                 (A) (A) (A) (A) (A) (A) (A) (A) (A) (A) (A) (A)
                 (A) (A) (A) (A) (A) (A) (A) (A) (A) (A) (A) (A)
                 (A) (A) (A) (A) (A) (A) (A) (A) (A) (A) (A) (A)
                 (A) (A) (A) (A) (A) (A) (A) (A) (A) (A) (A) (A)
                 (A) (A) (A) (A) (A) (A) (A) (A) (A) (A) (A) (A)
                 (A) (A) (A) (A) (A) (A) (A) (A) (A) (A) (A) (A)
                 (A) (A) (A) (A) (A) (A) (A) (A) (A) (A) (A) (A)
                 (A) (A) (A) (A) (A) (A) (A) (A) (A) (A) (A) (A)
                 (A) (A) (A) (A) (A) (A) (A) (A) (A) (A) (A) (A)
                 (A) (A) (A) (A) (A) (A) (A) (A) (A) (A) (A)
       Virtual   (A) (A) (A) (A) (A) (A) (A) (A) (A) (A) (A) (A)
                 (A) (A) (A) (A) (A) (A) (A) (A) (A) (A) (A) (A)
                 (A) (A) (A) (A) (A) (A) (A) (A) (A) (A) (A) (A)
                 (A) (A) (A) (A) (A) (A) (A) (A) (A) (A) (A) (A)
                 (A) (A) (A) (A) (A) (A) (A) (A) (A) (A) (A) (A)
                 (A) (A) (A) (A) (A) (A) (A) (A) (A) (A) (A) (A)
                 (A) (A) (A) (A) (A) (A) (A) (A) (A) (A) (A) (A)
                 (A) (A) (A) (A) (A) (A) (A) (A) (A) (A) (A) (A)
                 (A) (A) (A) (A) (A) (A) (A) (A) (A) (A) (A) (A)
                 (A) (A) (A) (A) (A) (A) (A) (A) (A) (A) (A) (A)
                 (A) (A) (A) (A) (A) (A) (A) (A) (A) (A) (A) (A)
                 (A) (A) (A) (A) (A) (A) (A) (A) (A) (A) (A) (A)
                 (A) (A) (A) (A) (A) (A) (A) (A) (A) (A) (A) (A)
                 (A) (A) (A) (A) (A) (A) (A) (A) (A) (A) (A) (A)
                 (A) (A) (A) (A) (A) (A) (A) (A) (A) (A) (A) (A)
                 (A) (A) (A) (A) (A) (A) (A) (A) (A) (A) (A) (A)
                 (A) (A) (A) (A) (A) (A) (A) (A) (A) (A) (A) (A)
                 (A) (A) (A) (A) (A) (A) (A) (A) (A) (A) (A) (A)
                 (A) (A) (A) (A) (A) (A) (A) (A) (A) (A) (A) (A)
                 (A) (A) (A) (A) (A) (A) (A) (A) (A) (A) (A) (A)
                 (A) (A) (A) (A) (A) (A) (A) (A) (A) (A) (A) (A)
                 (A) (A) (A) (A) (A) (A) (A) (A) (A) (A) (A) (A)
                 (A) (A) (A) (A) (A) (A) (A) (A) (A) (A) (A) (A)
                 (A) (A) (A) (A) (A) (A) (A) (A) (A) (A) (A) (A)
                 (A) (A) (A) (A) (A) (A) (A) (A) (A) (A) (A) (A)
                 (A) (A) (A) (A) (A) (A) (A) (A) (A) (A) (A) (A)
                 (A) (A) (A) (A) (A) (A) (A) (A) (A) (A) (A) (A)
                 (A) (A) (A) (A) (A) (A) (A) (A) (A) (A) (A) (A)
                 (A) (A) (A) (A) (A) (A) (A) (A) (A) (A) (A) (A)
                 (A) (A) (A) (A) (A) (A) (A) (A) (A) (A) (A) (A)
                 (A) (A) (A) (A) (A) (A) (A) (A) (A) (A) (A) (A)
                 (A) (A) (A) (A) (A) (A) (A) (A) (A) (A) (A) (A)
                 (A) (A) (A) (A) (A) (A) (A) (A) (A) (A) (A) (A)
                 (A) (A) (A) (A) (A) (A) (A) (A) (A) (A) (A) (A)
                 (A) (A) (A) (A) (A) (A) (A) (A) (A) (A) (A) (A)
                 (A) (A) (A) (A) (A) (A) (A) (A) (A) (A) (A) (A)
                 (A) (A) (A) (A) (A) (A) (A) (A) (A) (A) (A) (A)
                 (A) (A) (A) (A) (A) (A) (A) (A) (A) (A) (A) (A)
                 (A) (A) (A) (A) (A) (A) (A) (A) (A) (A) (A) (A)
                 (A) (A) (A) (A) (A) (A) (A) (A) (A) (A) (A) (A)
                 (A) (A) (A) (A) (A) (A) (A) (A) (A) (A) (A) (A)
                 (A) (A) (A) (A) (A) (A) (A) (A) (A) (A) (A) (A)
                 (A) (A) (A) (A) (A) (A) (A) (A) (A) (A) (A) (A)
                 (A) (A) (A) (A) (A) (A) (A) (A) (A) (A) (A) (A)
                 (A) (A) (A) (A) (A) (A) (A) (A) (A) (A) (A) (A)
                 (A) (A) (A) (A) (A) (A) (A) (A) (A) (A) (A) (A)
                 (A) (A) (A) (A) (A) (A) (A) (A) (A) (A) (A) (A)
                 (A) (A) (A) (A) (A) (A) (A) (A) (A) (A) (A) (A)
                 (A) (A) (A) (A) (A) (A) (A) (A) (A) (A) (A) (A)
                 (A) (A) (A) (A) (A) (A) (A) (A) (A) (A) (A) (A)
                 (A) (A) (A) (A) (A) (A) (A) (A) (A) (A) (A) (A)
                 (A) (A) (A) (A) (A) (A) (A) (A) (A) (A) (A) (A)
                 (A) (A) (A) (A) (A) (A) (A) (A) (A) (A) (A) (A)
                 (A) (A) (A) (A) (A) (A) (A) (A) (A) (A) (A) (A)
                 (A) (A) (A) (A) (A) (A) (A) (A) (A) (A) (A) (A)
                 (A) (A) (A) (A) (A)
 The electronic state is 1-A.
 Alpha  occ. eigenvalues --  -88.87465 -88.87181 -19.15744 -19.14528 -19.13204
 Alpha  occ. eigenvalues --  -19.12932 -19.12744 -19.12578 -19.12308 -19.12203
 Alpha  occ. eigenvalues --  -10.23609 -10.23348 -10.23300 -10.23281 -10.22638
 Alpha  occ. eigenvalues --  -10.22251 -10.22100 -10.22061 -10.21911 -10.21861
 Alpha  occ. eigenvalues --  -10.21732 -10.21717 -10.21603 -10.21547 -10.21462
 Alpha  occ. eigenvalues --  -10.21364 -10.20739 -10.20469 -10.19502 -10.19146
 Alpha  occ. eigenvalues --  -10.18108 -10.17371  -7.96004  -7.95788  -5.92324
 Alpha  occ. eigenvalues --   -5.92089  -5.91935  -5.91699  -5.91566  -5.91379
 Alpha  occ. eigenvalues --   -1.12128  -1.07576  -1.05213  -1.05012  -1.04465
 Alpha  occ. eigenvalues --   -1.04292  -1.03660  -1.03521  -0.89311  -0.87386
 Alpha  occ. eigenvalues --   -0.79841  -0.79555  -0.77867  -0.77456  -0.76268
 Alpha  occ. eigenvalues --   -0.74237  -0.73557  -0.72119  -0.70817  -0.69558
 Alpha  occ. eigenvalues --   -0.67107  -0.66759  -0.64636  -0.63268  -0.61586
 Alpha  occ. eigenvalues --   -0.61377  -0.61100  -0.61000  -0.60245  -0.57634
 Alpha  occ. eigenvalues --   -0.55915  -0.54404  -0.54376  -0.53913  -0.51729
 Alpha  occ. eigenvalues --   -0.51729  -0.51645  -0.50918  -0.50405  -0.49649
 Alpha  occ. eigenvalues --   -0.48952  -0.48859  -0.48326  -0.48312  -0.48097
 Alpha  occ. eigenvalues --   -0.47638  -0.46716  -0.46134  -0.45771  -0.45351
 Alpha  occ. eigenvalues --   -0.45182  -0.45086  -0.44127  -0.43807  -0.43196
 Alpha  occ. eigenvalues --   -0.43099  -0.42753  -0.42294  -0.40963  -0.40382
 Alpha  occ. eigenvalues --   -0.40201  -0.39291  -0.38565  -0.37947  -0.37197
 Alpha  occ. eigenvalues --   -0.36843  -0.36639  -0.36108  -0.36036  -0.35945
 Alpha  occ. eigenvalues --   -0.34620  -0.33927  -0.33658  -0.32955  -0.32810
 Alpha  occ. eigenvalues --   -0.32790  -0.32755  -0.32466  -0.32347  -0.29705
 Alpha  occ. eigenvalues --   -0.29438  -0.27413  -0.27397  -0.27062  -0.26813
 Alpha  occ. eigenvalues --   -0.26613  -0.26193  -0.26058  -0.23911  -0.23382
 Alpha  occ. eigenvalues --   -0.18334
 Alpha virt. eigenvalues --   -0.04243   0.00834   0.01576   0.02372   0.04008
 Alpha virt. eigenvalues --    0.04265   0.04411   0.04667   0.04836   0.05041
 Alpha virt. eigenvalues --    0.05169   0.05448   0.06362   0.06652   0.06935
 Alpha virt. eigenvalues --    0.06961   0.07303   0.07840   0.08319   0.08443
 Alpha virt. eigenvalues --    0.08581   0.08612   0.08858   0.08992   0.09157
 Alpha virt. eigenvalues --    0.10015   0.10077   0.10651   0.10885   0.10900
 Alpha virt. eigenvalues --    0.10937   0.10963   0.11469   0.12433   0.12643
 Alpha virt. eigenvalues --    0.13048   0.13100   0.13186   0.13204   0.14242
 Alpha virt. eigenvalues --    0.14587   0.14762   0.15152   0.15576   0.16103
 Alpha virt. eigenvalues --    0.16242   0.16334   0.16790   0.17793   0.18874
 Alpha virt. eigenvalues --    0.18918   0.19265   0.19599   0.20382   0.20475
 Alpha virt. eigenvalues --    0.20819   0.20989   0.21008   0.21625   0.21972
 Alpha virt. eigenvalues --    0.22564   0.22907   0.23643   0.24215   0.24721
 Alpha virt. eigenvalues --    0.24900   0.25913   0.27121   0.27269   0.28023
 Alpha virt. eigenvalues --    0.29223   0.29388   0.29632   0.30763   0.30898
 Alpha virt. eigenvalues --    0.31645   0.32136   0.32717   0.32791   0.33183
 Alpha virt. eigenvalues --    0.33974   0.34202   0.34293   0.34712   0.34899
 Alpha virt. eigenvalues --    0.35974   0.36343   0.36794   0.37982   0.38906
 Alpha virt. eigenvalues --    0.39630   0.40024   0.40425   0.40781   0.41563
 Alpha virt. eigenvalues --    0.42396   0.42609   0.42956   0.43000   0.43169
 Alpha virt. eigenvalues --    0.43416   0.44194   0.44224   0.44542   0.44756
 Alpha virt. eigenvalues --    0.44904   0.45021   0.45115   0.46091   0.46162
 Alpha virt. eigenvalues --    0.47074   0.47325   0.48402   0.48469   0.49023
 Alpha virt. eigenvalues --    0.49330   0.49600   0.49822   0.50371   0.50692
 Alpha virt. eigenvalues --    0.50797   0.51069   0.51230   0.51390   0.51658
 Alpha virt. eigenvalues --    0.51969   0.52182   0.53226   0.53374   0.53507
 Alpha virt. eigenvalues --    0.53591   0.53994   0.54601   0.54678   0.54958
 Alpha virt. eigenvalues --    0.55025   0.55710   0.56307   0.56865   0.57492
 Alpha virt. eigenvalues --    0.57659   0.57866   0.58124   0.58183   0.58906
 Alpha virt. eigenvalues --    0.59016   0.59255   0.59597   0.59847   0.60062
 Alpha virt. eigenvalues --    0.60519   0.60628   0.61078   0.61245   0.61451
 Alpha virt. eigenvalues --    0.61577   0.61990   0.62165   0.62354   0.62592
 Alpha virt. eigenvalues --    0.62622   0.62843   0.63213   0.63494   0.64232
 Alpha virt. eigenvalues --    0.64648   0.65349   0.65619   0.66316   0.66738
 Alpha virt. eigenvalues --    0.67239   0.67789   0.68467   0.69814   0.70443
 Alpha virt. eigenvalues --    0.70945   0.71319   0.72592   0.72751   0.73169
 Alpha virt. eigenvalues --    0.73574   0.74339   0.75303   0.75951   0.76987
 Alpha virt. eigenvalues --    0.78085   0.79034   0.80264   0.80377   0.82238
 Alpha virt. eigenvalues --    0.83766   0.84227   0.84836   0.86835   0.87784
 Alpha virt. eigenvalues --    0.87848   0.88481   0.89134   0.89885   0.89993
 Alpha virt. eigenvalues --    0.90378   0.90391   0.91019   0.92213   0.93999
 Alpha virt. eigenvalues --    0.94575   0.94634   0.95295   0.96213   0.96776
 Alpha virt. eigenvalues --    0.97205   0.97876   0.98546   0.98834   0.99130
 Alpha virt. eigenvalues --    1.00283   1.01256   1.01809   1.02091   1.02755
 Alpha virt. eigenvalues --    1.03318   1.03636   1.04246   1.04601   1.05235
 Alpha virt. eigenvalues --    1.05250   1.05428   1.06080   1.06338   1.06594
 Alpha virt. eigenvalues --    1.06762   1.07069   1.07461   1.07966   1.08943
 Alpha virt. eigenvalues --    1.10284   1.10689   1.11262   1.11679   1.12439
 Alpha virt. eigenvalues --    1.12725   1.14549   1.15597   1.16234   1.16731
 Alpha virt. eigenvalues --    1.17337   1.19327   1.21023   1.22468   1.22521
 Alpha virt. eigenvalues --    1.24381   1.24641   1.24743   1.25351   1.25713
 Alpha virt. eigenvalues --    1.25869   1.27104   1.28483   1.29179   1.31666
 Alpha virt. eigenvalues --    1.32404   1.32642   1.34130   1.36635   1.39171
 Alpha virt. eigenvalues --    1.39832   1.40953   1.41080   1.42309   1.42701
 Alpha virt. eigenvalues --    1.43286   1.43753   1.43863   1.44989   1.45083
 Alpha virt. eigenvalues --    1.45695   1.46185   1.46309   1.46390   1.46501
 Alpha virt. eigenvalues --    1.46614   1.46866   1.46976   1.47188   1.47328
 Alpha virt. eigenvalues --    1.47920   1.49117   1.49142   1.49797   1.50041
 Alpha virt. eigenvalues --    1.50369   1.51069   1.51248   1.51712   1.52012
 Alpha virt. eigenvalues --    1.52706   1.52983   1.54392   1.54807   1.56077
 Alpha virt. eigenvalues --    1.56240   1.56309   1.56843   1.57024   1.57320
 Alpha virt. eigenvalues --    1.58013   1.58680   1.58708   1.58915   1.58971
 Alpha virt. eigenvalues --    1.58991   1.59367   1.59616   1.59714   1.60229
 Alpha virt. eigenvalues --    1.60420   1.60639   1.61440   1.61694   1.61865
 Alpha virt. eigenvalues --    1.62625   1.63009   1.63579   1.63767   1.64601
 Alpha virt. eigenvalues --    1.64935   1.65138   1.65302   1.65559   1.65891
 Alpha virt. eigenvalues --    1.65963   1.66117   1.66430   1.68097   1.68743
 Alpha virt. eigenvalues --    1.68950   1.69040   1.70214   1.71743   1.72212
 Alpha virt. eigenvalues --    1.73215   1.73334   1.74342   1.75396   1.75752
 Alpha virt. eigenvalues --    1.75901   1.76552   1.77218   1.78600   1.79130
 Alpha virt. eigenvalues --    1.79555   1.79753   1.80241   1.80944   1.81221
 Alpha virt. eigenvalues --    1.82030   1.82460   1.82607   1.83213   1.84718
 Alpha virt. eigenvalues --    1.85490   1.87071   1.87416   1.88045   1.89149
 Alpha virt. eigenvalues --    1.89427   1.91112   1.91481   1.92107   1.93805
 Alpha virt. eigenvalues --    1.93993   1.95978   1.96762   1.97647   1.97697
 Alpha virt. eigenvalues --    1.99226   1.99815   2.00742   2.00825   2.01129
 Alpha virt. eigenvalues --    2.01544   2.01872   2.02509   2.03091   2.03626
 Alpha virt. eigenvalues --    2.04058   2.04269   2.04700   2.05167   2.06186
 Alpha virt. eigenvalues --    2.07075   2.07165   2.07345   2.08337   2.09450
 Alpha virt. eigenvalues --    2.09807   2.09914   2.10537   2.11061   2.11281
 Alpha virt. eigenvalues --    2.12328   2.12722   2.13485   2.14292   2.14876
 Alpha virt. eigenvalues --    2.17084   2.17622   2.18364   2.19288   2.19572
 Alpha virt. eigenvalues --    2.22300   2.23665   2.25270   2.26603   2.28828
 Alpha virt. eigenvalues --    2.29125   2.29318   2.29469   2.29514   2.30648
 Alpha virt. eigenvalues --    2.30893   2.31359   2.32676   2.32927   2.33626
 Alpha virt. eigenvalues --    2.34226   2.34768   2.34883   2.35115   2.35517
 Alpha virt. eigenvalues --    2.35641   2.35678   2.35766   2.35908   2.36070
 Alpha virt. eigenvalues --    2.38326   2.39561   2.41032   2.41552   2.41670
 Alpha virt. eigenvalues --    2.42100   2.42376   2.43223   2.43463   2.44730
 Alpha virt. eigenvalues --    2.44921   2.45808   2.45897   2.45961   2.46108
 Alpha virt. eigenvalues --    2.47006   2.48444   2.48729   2.49196   2.49315
 Alpha virt. eigenvalues --    2.50195   2.51019   2.52423   2.53136   2.53227
 Alpha virt. eigenvalues --    2.53502   2.53586   2.55303   2.56049   2.56645
 Alpha virt. eigenvalues --    2.57000   2.57339   2.58298   2.58777   2.59245
 Alpha virt. eigenvalues --    2.59468   2.60661   2.60848   2.61012   2.61761
 Alpha virt. eigenvalues --    2.64832   2.65312   2.66233   2.66783   2.70219
 Alpha virt. eigenvalues --    2.72189   2.72546   2.72944   2.73224   2.73358
 Alpha virt. eigenvalues --    2.73913   2.74235   2.75853   2.77477   2.78060
 Alpha virt. eigenvalues --    2.79777   2.81265   2.82119   2.82354   2.82438
 Alpha virt. eigenvalues --    2.83872   2.83913   2.84045   2.85162   2.85592
 Alpha virt. eigenvalues --    2.85961   2.86570   2.86966   2.88859   2.89721
 Alpha virt. eigenvalues --    2.90781   2.91581   2.91916   2.93510   2.93902
 Alpha virt. eigenvalues --    2.95406   2.95780   2.96122   2.97930   2.98925
 Alpha virt. eigenvalues --    2.99976   3.03605   3.05372   3.07084   3.07563
 Alpha virt. eigenvalues --    3.07763   3.07862   3.09990   3.11088   3.11247
 Alpha virt. eigenvalues --    3.11561   3.13457   3.13584   3.15029   3.17219
 Alpha virt. eigenvalues --    3.17221   3.18112   3.18737   3.19230   3.20708
 Alpha virt. eigenvalues --    3.21668   3.22031   3.23062   3.24102   3.24345
 Alpha virt. eigenvalues --    3.25872   3.26164   3.26531   3.27810   3.28277
 Alpha virt. eigenvalues --    3.28378   3.29640   3.31608   3.31713   3.33624
 Alpha virt. eigenvalues --    3.33842   3.33983   3.35036   3.36576   3.43934
 Alpha virt. eigenvalues --    3.47016   3.52228   3.53785   3.68814   3.75182
 Alpha virt. eigenvalues --    3.75262   3.75579   3.75867   3.76345   3.76834
 Alpha virt. eigenvalues --    3.76852   3.77598   3.77646   3.77977   3.79023
 Alpha virt. eigenvalues --    3.79595   3.79736   3.80615   3.80712   3.86963
 Alpha virt. eigenvalues --    3.92102   3.94159   3.94253   3.94421   3.95439
 Alpha virt. eigenvalues --    3.96983   4.00797   4.01524   4.03063   4.04311
 Alpha virt. eigenvalues --    4.05530   4.07897   4.08763   4.09316   4.12638
 Alpha virt. eigenvalues --    4.13436   4.14959   4.17522   4.19852   4.22213
 Alpha virt. eigenvalues --    4.24869   4.27672   4.28509   4.31226   4.41411
 Alpha virt. eigenvalues --    4.58223   4.90294   4.92291   4.94312   4.94510
 Alpha virt. eigenvalues --    4.95709   4.96309   4.96608   4.96849   5.20191
 Alpha virt. eigenvalues --    5.20256   5.24503   5.24673   5.29615   5.29846
 Alpha virt. eigenvalues --    5.33504   5.37729   5.65892   5.66023   5.68782
 Alpha virt. eigenvalues --    5.69252   5.74728   5.75150   5.80770   5.90976
 Alpha virt. eigenvalues --    7.81359   7.81711  17.19518  17.21640  17.41712
 Alpha virt. eigenvalues --   17.43114  17.48256  17.52836  23.43427  23.67644
 Alpha virt. eigenvalues --   23.77327  23.77548  23.77899  23.78006  23.78361
 Alpha virt. eigenvalues --   23.78550  23.79617  23.79763  23.80126  23.80158
 Alpha virt. eigenvalues --   23.80944  23.81010  23.84048  23.85872  23.85981
 Alpha virt. eigenvalues --   23.90383  24.03814  24.03999  24.15466  24.20112
 Alpha virt. eigenvalues --   49.87885  49.88081  49.90559  49.90916  49.92531
 Alpha virt. eigenvalues --   49.92799  49.93041  50.01367 188.92657 188.93279
          Condensed to atoms (all electrons):
 Mulliken charges:
               1
     1  C   -0.232580
     2  C    0.238382
     3  C   -0.105272
     4  C   -0.282943
     5  S    0.307716
     6  O   -0.383500
     7  H    0.108873
     8  C   -0.223920
     9  C    0.196149
    10  C   -0.085837
    11  C   -0.306778
    12  S    0.309333
    13  O   -0.348036
    14  H    0.126340
    15  C   -0.042902
    16  H    0.116832
    17  H    0.116687
    18  C    0.014651
    19  H    0.105426
    20  H    0.105442
    21  O   -0.391709
    22  C    0.000294
    23  H    0.098540
    24  H    0.098542
    25  C    0.002672
    26  H    0.096531
    27  H    0.096537
    28  O   -0.389986
    29  C    0.000582
[...]
 Alpha  occ. eigenvalues --   -1.04376  -1.03604  -1.03604  -0.88794  -0.87006
 Alpha  occ. eigenvalues --   -0.79742  -0.79666  -0.77488  -0.77275  -0.76106
 Alpha  occ. eigenvalues --   -0.73749  -0.73331  -0.71881  -0.70824  -0.69246
 Alpha  occ. eigenvalues --   -0.66998  -0.66725  -0.63207  -0.63047  -0.61494
 Alpha  occ. eigenvalues --   -0.61484  -0.61035  -0.61009  -0.59647  -0.57419
 Alpha  occ. eigenvalues --   -0.55806  -0.55797  -0.53593  -0.51628  -0.51621
 Alpha  occ. eigenvalues --   -0.51608  -0.51580  -0.50318  -0.50295  -0.48932
 Alpha  occ. eigenvalues --   -0.48816  -0.48247  -0.48204  -0.48147  -0.47650
 Alpha  occ. eigenvalues --   -0.47511  -0.46627  -0.45992  -0.45120  -0.45063
 Alpha  occ. eigenvalues --   -0.45045  -0.44944  -0.44241  -0.44221  -0.43052
 Alpha  occ. eigenvalues --   -0.42878  -0.42499  -0.42443  -0.40314  -0.40196
 Alpha  occ. eigenvalues --   -0.40119  -0.39274  -0.38226  -0.37702  -0.37144
 Alpha  occ. eigenvalues --   -0.36755  -0.36656  -0.36079  -0.36043  -0.35916
 Alpha  occ. eigenvalues --   -0.34933  -0.33973  -0.33611  -0.32920  -0.32880
 Alpha  occ. eigenvalues --   -0.32871  -0.32609  -0.32450  -0.32409  -0.32392
 Alpha  occ. eigenvalues --   -0.32221  -0.27386  -0.27307  -0.27299  -0.26739
 Alpha  occ. eigenvalues --   -0.26735  -0.26139  -0.26139  -0.23750  -0.23445
 Alpha  occ. eigenvalues --   -0.18327
 Alpha virt. eigenvalues --   -0.03751   0.01177   0.02303   0.02508   0.04275
 Alpha virt. eigenvalues --    0.04325   0.04739   0.04739   0.04941   0.05113
 Alpha virt. eigenvalues --    0.05441   0.05779   0.06327   0.06689   0.07021
 Alpha virt. eigenvalues --    0.07054   0.07121   0.07747   0.08323   0.08346
 Alpha virt. eigenvalues --    0.08601   0.08675   0.08753   0.08891   0.09368
 Alpha virt. eigenvalues --    0.10408   0.10524   0.10867   0.10965   0.10968
 Alpha virt. eigenvalues --    0.10987   0.11238   0.11530   0.12517   0.12641
 Alpha virt. eigenvalues --    0.12954   0.13110   0.13170   0.13488   0.14237
 Alpha virt. eigenvalues --    0.14450   0.14800   0.15143   0.15433   0.15480
 Alpha virt. eigenvalues --    0.16094   0.16377   0.16479   0.17700   0.18971
 Alpha virt. eigenvalues --    0.19421   0.19478   0.19513   0.19664   0.20604
 Alpha virt. eigenvalues --    0.20742   0.20875   0.21475   0.21628   0.21963
 Alpha virt. eigenvalues --    0.22744   0.23326   0.23667   0.24224   0.24818
 Alpha virt. eigenvalues --    0.25427   0.26390   0.26937   0.27919   0.28931
 Alpha virt. eigenvalues --    0.29357   0.29568   0.30813   0.30814   0.32222
 Alpha virt. eigenvalues --    0.32294   0.32345   0.32866   0.32940   0.33256
 Alpha virt. eigenvalues --    0.33513   0.34273   0.34282   0.34920   0.34953
 Alpha virt. eigenvalues --    0.36216   0.36497   0.36910   0.38057   0.39603
 Alpha virt. eigenvalues --    0.39857   0.40352   0.40597   0.40675   0.40917
 Alpha virt. eigenvalues --    0.41642   0.42362   0.42910   0.42944   0.43107
 Alpha virt. eigenvalues --    0.43499   0.44039   0.44257   0.44283   0.44786
 Alpha virt. eigenvalues --    0.44880   0.45069   0.45107   0.45661   0.45937
 Alpha virt. eigenvalues --    0.46362   0.46602   0.48036   0.48286   0.48827
 Alpha virt. eigenvalues --    0.49554   0.49736   0.50221   0.50264   0.50487
 Alpha virt. eigenvalues --    0.50809   0.50875   0.50933   0.51345   0.51456
 Alpha virt. eigenvalues --    0.51860   0.52049   0.52335   0.53371   0.53514
 Alpha virt. eigenvalues --    0.53567   0.53902   0.53907   0.54519   0.54909
 Alpha virt. eigenvalues --    0.55096   0.55134   0.55663   0.55921   0.57339
 Alpha virt. eigenvalues --    0.57774   0.57819   0.57987   0.58153   0.58155
 Alpha virt. eigenvalues --    0.58547   0.58952   0.58972   0.60047   0.60198
 Alpha virt. eigenvalues --    0.60433   0.60729   0.60750   0.60813   0.61125
 Alpha virt. eigenvalues --    0.61308   0.61854   0.62323   0.62465   0.62550
 Alpha virt. eigenvalues --    0.62617   0.62692   0.62788   0.63453   0.64256
 Alpha virt. eigenvalues --    0.64393   0.64934   0.65311   0.65739   0.66005
 Alpha virt. eigenvalues --    0.67004   0.67849   0.67867   0.70028   0.70272
 Alpha virt. eigenvalues --    0.70959   0.71091   0.72799   0.73013   0.73122
 Alpha virt. eigenvalues --    0.73939   0.74916   0.75875   0.76434   0.77027
 Alpha virt. eigenvalues --    0.77627   0.80259   0.80266   0.80762   0.80913
 Alpha virt. eigenvalues --    0.84660   0.85073   0.85670   0.86327   0.87148
 Alpha virt. eigenvalues --    0.88873   0.88904   0.89427   0.89460   0.90081
 Alpha virt. eigenvalues --    0.90595   0.91219   0.92385   0.93349   0.93787
 Alpha virt. eigenvalues --    0.94305   0.95400   0.95643   0.95691   0.96148
 Alpha virt. eigenvalues --    0.97302   0.97813   0.98394   0.99141   0.99266
 Alpha virt. eigenvalues --    1.01276   1.01964   1.02223   1.02754   1.03138
 Alpha virt. eigenvalues --    1.03242   1.03246   1.04298   1.04641   1.05180
 Alpha virt. eigenvalues --    1.05343   1.05501   1.06039   1.06168   1.06184
 Alpha virt. eigenvalues --    1.06645   1.07430   1.07747   1.08550   1.09011
 Alpha virt. eigenvalues --    1.09855   1.10472   1.11367   1.11850   1.12713
 Alpha virt. eigenvalues --    1.12742   1.12834   1.14171   1.17028   1.17987
 Alpha virt. eigenvalues --    1.18330   1.19678   1.21020   1.22852   1.23182
 Alpha virt. eigenvalues --    1.24301   1.24902   1.25122   1.25647   1.25797
 Alpha virt. eigenvalues --    1.25803   1.28133   1.28396   1.29299   1.32273
 Alpha virt. eigenvalues --    1.33112   1.34455   1.34563   1.34566   1.40689
 Alpha virt. eigenvalues --    1.41009   1.41025   1.42138   1.43235   1.43804
 Alpha virt. eigenvalues --    1.43804   1.44906   1.45158   1.45226   1.46254
 Alpha virt. eigenvalues --    1.46342   1.46380   1.46429   1.46597   1.46624
 Alpha virt. eigenvalues --    1.46931   1.46935   1.47257   1.47259   1.48015
 Alpha virt. eigenvalues --    1.48111   1.49148   1.49280   1.49978   1.50114
 Alpha virt. eigenvalues --    1.50597   1.51146   1.51561   1.52183   1.52307
 Alpha virt. eigenvalues --    1.52798   1.53175   1.53199   1.55363   1.55628
 Alpha virt. eigenvalues --    1.56700   1.56852   1.57350   1.57380   1.57518
 Alpha virt. eigenvalues --    1.58142   1.58617   1.58741   1.58839   1.59001
 Alpha virt. eigenvalues --    1.59013   1.59069   1.59405   1.59434   1.60096
 Alpha virt. eigenvalues --    1.60974   1.61143   1.61324   1.61437   1.62191
 Alpha virt. eigenvalues --    1.62549   1.62579   1.62590   1.63316   1.63996
 Alpha virt. eigenvalues --    1.65411   1.65419   1.65536   1.65674   1.65716
 Alpha virt. eigenvalues --    1.65925   1.66045   1.66060   1.66610   1.68985
 Alpha virt. eigenvalues --    1.68985   1.69677   1.70007   1.72105   1.73175
 Alpha virt. eigenvalues --    1.73222   1.73454   1.74307   1.75546   1.76246
 Alpha virt. eigenvalues --    1.76351   1.77291   1.77439   1.77982   1.78605
 Alpha virt. eigenvalues --    1.79482   1.79581   1.80089   1.80090   1.80356
 Alpha virt. eigenvalues --    1.80375   1.81843   1.81924   1.82630   1.82667
 Alpha virt. eigenvalues --    1.84906   1.86140   1.86791   1.87415   1.87436
 Alpha virt. eigenvalues --    1.89053   1.90127   1.92020   1.92612   1.93849
 Alpha virt. eigenvalues --    1.94485   1.95962   1.97782   1.97880   1.99029
 Alpha virt. eigenvalues --    1.99160   1.99928   2.00389   2.01070   2.01667
 Alpha virt. eigenvalues --    2.01781   2.02156   2.02247   2.03529   2.03589
 Alpha virt. eigenvalues --    2.03895   2.03977   2.04897   2.05103   2.06331
 Alpha virt. eigenvalues --    2.06811   2.07183   2.07453   2.08888   2.09409
 Alpha virt. eigenvalues --    2.09698   2.09848   2.09972   2.10491   2.10531
 Alpha virt. eigenvalues --    2.12059   2.12114   2.12694   2.14931   2.15062
 Alpha virt. eigenvalues --    2.15419   2.15736   2.17690   2.17831   2.18327
 Alpha virt. eigenvalues --    2.21138   2.22405   2.22688   2.26648   2.26716
 Alpha virt. eigenvalues --    2.29122   2.29170   2.29473   2.29520   2.29785
 Alpha virt. eigenvalues --    2.29956   2.31449   2.31506   2.33504   2.33915
 Alpha virt. eigenvalues --    2.34778   2.34786   2.34993   2.35013   2.35591
 Alpha virt. eigenvalues --    2.35605   2.35653   2.35867   2.35882   2.36061
 Alpha virt. eigenvalues --    2.36079   2.38615   2.41135   2.41175   2.41702
 Alpha virt. eigenvalues --    2.41724   2.42415   2.42458   2.43492   2.43531
 Alpha virt. eigenvalues --    2.44470   2.44603   2.44996   2.46038   2.46038
 Alpha virt. eigenvalues --    2.47634   2.48447   2.48665   2.49338   2.49553
 Alpha virt. eigenvalues --    2.51068   2.51643   2.52198   2.52651   2.53152
 Alpha virt. eigenvalues --    2.53155   2.53542   2.53683   2.53756   2.54792
 Alpha virt. eigenvalues --    2.55799   2.56849   2.57335   2.57409   2.58425
 Alpha virt. eigenvalues --    2.60373   2.60739   2.61001   2.61098   2.61133
 Alpha virt. eigenvalues --    2.61615   2.63051   2.63611   2.65149   2.65300
 Alpha virt. eigenvalues --    2.65782   2.70712   2.72722   2.72854   2.72969
 Alpha virt. eigenvalues --    2.73984   2.73991   2.75719   2.76281   2.78107
 Alpha virt. eigenvalues --    2.78128   2.81364   2.81445   2.82004   2.82372
 Alpha virt. eigenvalues --    2.82651   2.83980   2.84022   2.85269   2.85315
 Alpha virt. eigenvalues --    2.85974   2.86036   2.87077   2.87098   2.89236
 Alpha virt. eigenvalues --    2.90810   2.90965   2.91845   2.93651   2.93943
 Alpha virt. eigenvalues --    2.95429   2.95435   2.96046   2.96104   2.97398
 Alpha virt. eigenvalues --    2.99843   3.00948   3.05448   3.05576   3.06282
 Alpha virt. eigenvalues --    3.07895   3.07940   3.08814   3.11200   3.11246
 Alpha virt. eigenvalues --    3.13550   3.13557   3.14987   3.15224   3.17262
 Alpha virt. eigenvalues --    3.17389   3.18192   3.18563   3.20031   3.20749
 Alpha virt. eigenvalues --    3.21920   3.22047   3.22058   3.22271   3.24722
 Alpha virt. eigenvalues --    3.25323   3.26048   3.26274   3.27554   3.27984
 Alpha virt. eigenvalues --    3.28439   3.28492   3.31775   3.31794   3.33415
 Alpha virt. eigenvalues --    3.33857   3.33915   3.35187   3.37062   3.41634
 Alpha virt. eigenvalues --    3.43862   3.49325   3.50850   3.69761   3.75260
 Alpha virt. eigenvalues --    3.75260   3.75676   3.75676   3.76469   3.76485
 Alpha virt. eigenvalues --    3.76970   3.76973   3.77641   3.77643   3.79122
 Alpha virt. eigenvalues --    3.79187   3.79704   3.79728   3.80689   3.80694
 Alpha virt. eigenvalues --    3.92372   3.94315   3.94347   3.94887   3.96271
 Alpha virt. eigenvalues --    3.99849   4.01484   4.02739   4.03741   4.05112
 Alpha virt. eigenvalues --    4.06738   4.07967   4.08792   4.09361   4.12860
 Alpha virt. eigenvalues --    4.13383   4.15723   4.17425   4.18163   4.22089
 Alpha virt. eigenvalues --    4.23193   4.26655   4.28518   4.31000   4.31799
 Alpha virt. eigenvalues --    4.57890   4.90897   4.92982   4.94371   4.94383
 Alpha virt. eigenvalues --    4.95797   4.95863   4.96677   4.96690   5.20271
 Alpha virt. eigenvalues --    5.20334   5.24605   5.24786   5.29618   5.29832
 Alpha virt. eigenvalues --    5.33150   5.34610   5.66025   5.66082   5.69167
 Alpha virt. eigenvalues --    5.69395   5.74621   5.75185   5.79895   5.82305
 Alpha virt. eigenvalues --    7.81691   7.81929  17.19855  17.21961  17.42127
 Alpha virt. eigenvalues --   17.42917  17.48097  17.53016  23.42525  23.66570
 Alpha virt. eigenvalues --   23.77460  23.77469  23.77970  23.77988  23.78034
 Alpha virt. eigenvalues --   23.78371  23.78377  23.79777  23.79985  23.80218
 Alpha virt. eigenvalues --   23.80219  23.81034  23.81054  23.83228  23.85920
 Alpha virt. eigenvalues --   23.85920  24.03622  24.03938  24.16200  24.16587
 Alpha virt. eigenvalues --   49.87951  49.87953  49.90651  49.90657  49.92512
 Alpha virt. eigenvalues --   49.92632  49.92839  49.93547 188.93091 188.93520
          Condensed to atoms (all electrons):
 Mulliken charges:
               1
     1  C   -0.229948
     2  C    0.237212
     3  C   -0.091327
     4  C   -0.304757
     5  S    0.310395
     6  O   -0.382573
     7  H    0.108856
     8  C   -0.229929
     9  C    0.237209
    10  C   -0.091361
    11  C   -0.304753
    12  S    0.310442
    13  O   -0.382566
    14  H    0.108856
    15  C   -0.043388
    16  H    0.116381
    17  H    0.116382
    18  C    0.014356
    19  H    0.105778
    20  H    0.105779
    21  O   -0.392142
    22  C    0.000561
    23  H    0.098541
    24  H    0.098542
    25  C    0.002642
    26  H    0.096513
    27  H    0.096511
    28  O   -0.390018
    29  C    0.000611
    30  H    0.097634
    31  H    0.097636
    32  C   -0.008004
    33  H    0.094228
    34  H    0.094227
    35  O   -0.370436
    36  C   -0.102022
    37  H    0.089289
    38  H    0.115619
    39  H    0.089289
    40  C   -0.043389
    41  H    0.116396
    42  H    0.116390
    43  C    0.014354
    44  H    0.105795
    45  H    0.105779
    46  O   -0.392158
    47  C    0.000557
    48  H    0.098542
    49  H    0.098546
    50  C    0.002638
    51  H    0.096515
    52  H    0.096508
    53  O   -0.390017
    54  C    0.000611
    55  H    0.097633
    56  H    0.097638
    57  C   -0.008004
    58  H    0.094229
    59  H    0.094226
    60  O   -0.370435
    61  C   -0.102024
    62  H    0.089290
    63  H    0.115619
    64  H    0.089291
    65  H    0.127606
    66  H    0.127600
 Sum of Mulliken charges =  -0.00000
 Mulliken charges with hydrogens summed into heavy atoms:
               1
     1  C   -0.229948
     2  C    0.237212
     3  C    0.017529
     4  C   -0.177151
     5  S    0.310395
     6  O   -0.382573
     8  C   -0.229929
     9  C    0.237209
    10  C    0.017495
    11  C   -0.177153
    12  S    0.310442
    13  O   -0.382566
    15  C    0.189375
    18  C    0.225914
    21  O   -0.392142
    22  C    0.197643
    25  C    0.195666
    28  O   -0.390018
    29  C    0.195880
    32  C    0.180452
    35  O   -0.370436
    36  C    0.192176
    40  C    0.189397
    43  C    0.225928
    46  O   -0.392158
    47  C    0.197645
    50  C    0.195661
    53  O   -0.390017
    54  C    0.195882
    57  C    0.180451
    60  O   -0.370435
    61  C    0.192176
 Electronic spatial extent (au):  <R**2>=          57556.4548
 Charge=             -0.0000 electrons
 Dipole moment (field-independent basis, Debye):
    X=              0.0001    Y=             -0.0001    Z=              0.0003  Tot=              0.0003
 Quadrupole moment (field-independent basis, Debye-Ang):
   XX=           -165.7946   YY=           -195.2077   ZZ=           -210.4938
   XY=            -18.1483   XZ=              0.0025   YZ=              0.0020
 Traceless Quadrupole moment (field-independent basis, Debye-Ang):
   XX=             24.7041   YY=             -4.7090   ZZ=            -19.9951
   XY=            -18.1483   XZ=              0.0025   YZ=              0.0020
 Octapole moment (field-independent basis, Debye-Ang**2):
  XXX=              0.1012  YYY=             -0.0084  ZZZ=              0.0210  XYY=             -0.0274
  XXY=              0.0273  XXZ=              0.0645  XZZ=             -0.0007  YZZ=              0.0017
  YYZ=             -0.0050  XYZ=             -0.0337
 Hexadecapole moment (field-independent basis, Debye-Ang**3):
 XXXX=         -60488.8068 YYYY=          -2490.5346 ZZZZ=           -328.9558 XXXY=          -4532.9732
 XXXZ=              0.0452 YYYX=             35.8481 YYYZ=              0.0264 ZZZX=              0.0022
 ZZZY=             -0.0008 XXYY=         -12274.3018 XXZZ=         -11932.5777 YYZZ=           -548.7482
 XXYZ=              0.0786 YYXZ=              0.0090 ZZXY=              1.1571
 N-N= 3.220325214494D+03 E-N=-1.174968453989D+04  KE= 2.250812308931D+03
 No NMR shielding tensors so no spin-rotation constants.
 Leave Link  601 at Mon Jan 13 13:31:09 2020, MaxMem=  6710886400 cpu:               9.1 elap:               0.6
 (Enter /apps/gaussian/g16-a03/l9999.exe)
 1\1\GINC-CX1-141-15-1\FOpt\RB3LYP\6-311G(d,p)\C22H34O8S2\NS5018\13-Jan
 -2020\0\\#p opt b3lyp/6-311g**\\O3G_1m_0sc_opt.pdb\\0,1\C,-5.710217619
 5,0.4684825946,-0.0417474895\C,-4.5034191667,1.1502898651,-0.042078372
 4\C,-4.6313760409,2.5683018585,-0.039124906\C,-5.9367797892,2.96556576
 19,-0.0365018978\S,-7.031199619,1.6297866041,-0.0378874368\O,-3.332888
 6831,0.4493984833,-0.0450324329\H,-3.7988344476,3.2565208248,-0.038877
 5174\C,-5.9267147214,-0.9591918411,-0.0441663354\C,-7.1335796566,-1.64
 0916259,-0.0437866431\C,-7.0057456807,-3.0588906871,-0.0467851468\C,-5
 .7002973749,-3.4562322711,-0.0494885422\S,-4.6058687199,-2.1206089977,
 -0.0481261293\O,-8.3040304832,-0.9399765121,-0.0407816777\H,-7.8382445
 ,-3.7471567731,-0.047013681\C,-2.1107726515,1.1809577026,-0.0452707135
 \H,-2.0369812115,1.8133642025,0.8463736487\H,-2.0393886495,1.816812226
 5,-0.934655994\C,-0.9842048704,0.1627635738,-0.0487629392\H,-1.0589316
 831,-0.4800441609,0.8392444742\H,-1.061317784,-0.4765875764,-0.9390588
 952\O,0.227153538,0.893246566,-0.048969956\C,1.3814420622,0.0718356414
 ,-0.0521463946\H,1.4053727428,-0.5758188986,0.8353993834\H,1.402956219
 ,-0.5723392687,-0.9422825211\C,2.5938303294,0.9861517449,-0.0520051887
 \H,2.5714482767,1.6310284714,0.8380333348\H,2.5690285087,1.6345086607,
 -0.9394475022\O,3.7450426894,0.1640174044,-0.0551810218\C,4.9587317195
 ,0.8936938166,-0.0554073628\H,5.0329046318,1.5345714607,0.8344580129\H
 ,5.0305352398,1.5379658907,-0.9430133894\C,6.0980247137,-0.1100161755,
 -0.0588496815\H,6.0219865842,-0.7522291157,-0.9487734878\H,6.024414611
 5,-0.7555804922,0.8288506979\O,7.3084161048,0.6202846839,-0.0591247816
 \C,8.4523054932,-0.2087106928,-0.0622545026\H,8.4854197456,-0.84883298
 48,-0.9557164081\H,9.3249825603,0.4449429542,-0.0622266801\H,8.4878739
 382,-0.8521848329,0.8287020703\C,-9.5261747613,-1.6715175711,-0.040286
 1788\H,-9.5973433626,-2.3073989554,0.8490770214\H,-9.6001859478,-2.303
 7949315,-0.9319843469\C,-10.6526365209,-0.6532394315,-0.0363670955\H,-
 10.5750259841,-0.0138606823,0.8538554705\H,-10.5782914014,-0.010533876
 5,-0.9244695052\O,-11.8641152418,-1.3836012905,-0.0355287893\C,-13.018
 2510422,-0.5619542495,-0.032312506\H,-13.0394133357,0.0824738017,0.857
 6448923\H,-13.0422427362,0.0854442893,-0.920038895\C,-14.2308082176,-1
 .4760550705,-0.0319034883\H,-14.2058875071,-2.1241696505,0.8557118701\
 H,-14.2087358055,-2.1211836118,-0.9217674822\O,-15.3819029237,-0.65375
 14532,-0.0286745\C,-16.5956849406,-1.3832770798,-0.0278565537\H,-16.66
 72009965,-2.0274184238,0.8598658459\H,-16.6703070398,-2.0242591601,-0.
 9176089542\C,-17.7348256294,-0.3794007546,-0.0240982345\H,-17.66138568
 54,0.2661128097,-0.9118499805\H,-17.6584240012,0.262840716,0.865774371
 \O,-18.9453196143,-1.1095266709,-0.0234223252\C,-20.0890818539,-0.2803
 534495,-0.019993046\H,-20.1247976057,0.3631030533,-0.9109553381\H,-20.
 9618547337,-0.9338786763,-0.0197646778\H,-20.1218500511,0.3597918464,0
 .8734642342\H,-6.3224490636,3.9730719453,-0.033930979\H,-5.3148803528,
 -4.4638369252,-0.0520968231\\Version=ES64L-G16RevA.03\State=1-A\HF=-22
 57.2813542\RMSD=8.637e-09\RMSF=8.856e-06\Dipole=0.0000469,-0.0000514,0
 .0001116\Quadrupole=19.9266847,-5.061015,-14.8656696,-12.0626816,-0.07
 30716,0.0384396\PG=C01 [X(C22H34O8S2)]\\@


 IF YOU WISH TO UNDERSTAND THE FRAGRANCE OF THE ROSE, 
 OR THE TENACITY OF THE OAK; 
 IF YOU ARE NOT SATISFIED UNTIL YOU KNOW THE SECRET PATHS 
 BY WHICH THE SUNSHINE AND THE AIR ACHIEVE THESE WONDERS; 
 IF YOU WISH TO SEE THE PATTERN WHICH UNDERLIES ONE LARGE FIELD OF 
 HUMAN EXPERIENCE AND HUMAN MEASUREMENT, THEN TAKE UP CHEMISTRY.

                                         -- C. A. COULSON, 1973.
 Job cpu time:       0 days  6 hours 52 minutes 12.1 seconds.
 Elapsed time:       0 days  0 hours 25 minutes 52.6 seconds.
 File lengths (MBytes):  RWF=    392 Int=      0 D2E=      0 Chk=     48 Scr=      1
 Normal termination of Gaussian 16 at Mon Jan 13 13:31:09 2020.
