 Entering Gaussian System, Link 0=g16
 Input=OBT_3m_opt_freq.gjf
 Output=OBT_3m_opt_freq.log
 Initial command:
 /apps/gaussian/g16-a03/l1.exe "/tmp/pbs.945896.pbs/Gau-33483.inp" -scrdir="/tmp/pbs.945896.pbs/"
 Entering Link 1 = /apps/gaussian/g16-a03/l1.exe PID=     33484.
  
 Copyright (c) 1988,1990,1992,1993,1995,1998,2003,2009,2016,
            Gaussian, Inc.  All Rights Reserved.
  
 This is part of the Gaussian(R) 16 program.  It is based on
 the Gaussian(R) 09 system (copyright 2009, Gaussian, Inc.),
 the Gaussian(R) 03 system (copyright 2003, Gaussian, Inc.),
 the Gaussian(R) 98 system (copyright 1998, Gaussian, Inc.),
 the Gaussian(R) 94 system (copyright 1995, Gaussian, Inc.),
 the Gaussian 92(TM) system (copyright 1992, Gaussian, Inc.),
 the Gaussian 90(TM) system (copyright 1990, Gaussian, Inc.),
 the Gaussian 88(TM) system (copyright 1988, Gaussian, Inc.),
 the Gaussian 86(TM) system (copyright 1986, Carnegie Mellon
 University), and the Gaussian 82(TM) system (copyright 1983,
 Carnegie Mellon University). Gaussian is a federally registered
 trademark of Gaussian, Inc.
  
 This software contains proprietary and confidential information,
 including trade secrets, belonging to Gaussian, Inc.
  
 This software is provided under written license and may be
 used, copied, transmitted, or stored only in accord with that
 written license.
  
 The following legend is applicable only to US Government
 contracts under FAR:
  
                    RESTRICTED RIGHTS LEGEND
  
 Use, reproduction and disclosure by the US Government is
 subject to restrictions as set forth in subparagraphs (a)
 and (c) of the Commercial Computer Software - Restricted
 Rights clause in FAR 52.227-19.
  
 Gaussian, Inc.
 340 Quinnipiac St., Bldg. 40, Wallingford CT 06492
  
  
 ---------------------------------------------------------------
 Warning -- This program may not be used in any manner that
 competes with the business of Gaussian, Inc. or will provide
 assistance to any competitor of Gaussian, Inc.  The licensee
 of this program is prohibited from giving any competitor of
 Gaussian, Inc. access to this program.  By using this program,
 the user acknowledges that Gaussian, Inc. is engaged in the
 business of creating and licensing software in the field of
 computational chemistry and represents and warrants to the
 licensee that it is not a competitor of Gaussian, Inc. and that
 it will not use this program in any manner prohibited above.
 ---------------------------------------------------------------
  

 Cite this work as:
 Gaussian 16, Revision A.03,
 M. J. Frisch, G. W. Trucks, H. B. Schlegel, G. E. Scuseria, 
 M. A. Robb, J. R. Cheeseman, G. Scalmani, V. Barone, 
 G. A. Petersson, H. Nakatsuji, X. Li, M. Caricato, A. V. Marenich, 
 J. Bloino, B. G. Janesko, R. Gomperts, B. Mennucci, H. P. Hratchian, 
 J. V. Ortiz, A. F. Izmaylov, J. L. Sonnenberg, D. Williams-Young, 
 F. Ding, F. Lipparini, F. Egidi, J. Goings, B. Peng, A. Petrone, 
 T. Henderson, D. Ranasinghe, V. G. Zakrzewski, J. Gao, N. Rega, 
 G. Zheng, W. Liang, M. Hada, M. Ehara, K. Toyota, R. Fukuda, 
 J. Hasegawa, M. Ishida, T. Nakajima, Y. Honda, O. Kitao, H. Nakai, 
 T. Vreven, K. Throssell, J. A. Montgomery, Jr., J. E. Peralta, 
 F. Ogliaro, M. J. Bearpark, J. J. Heyd, E. N. Brothers, K. N. Kudin, 
 V. N. Staroverov, T. A. Keith, R. Kobayashi, J. Normand, 
 K. Raghavachari, A. P. Rendell, J. C. Burant, S. S. Iyengar, 
 J. Tomasi, M. Cossi, J. M. Millam, M. Klene, C. Adamo, R. Cammi, 
 J. W. Ochterski, R. L. Martin, K. Morokuma, O. Farkas, 
 J. B. Foresman, and D. J. Fox, Gaussian, Inc., Wallingford CT, 2016.
 
 ******************************************
 Gaussian 16:  ES64L-G16RevA.03 25-Dec-2016
                10-Jan-2020 
 ******************************************
 %mem=50GB
 %nprocshared=8
 Will use up to    8 processors via shared memory.
 ------------------------------
 #p opt freq=Raman b3lyp/6-311g
 ------------------------------
 1/18=20,19=15,26=3,38=1/1,3;
 2/9=110,12=2,17=6,18=5,40=1/2;
 3/5=4,6=6,11=2,25=1,30=1,71=1,74=-5/1,2,3;
 4//1;
 5/5=2,38=5/2;
 6/7=2,8=2,9=2,10=2,28=1/1;
 7//1,2,3,16;
 1/18=20,19=15,26=3/3(2);
 2/9=110/2;
 99//99;
 2/9=110/2;
 3/5=4,6=6,11=2,25=1,30=1,71=1,74=-5/1,2,3;
 4/5=5,16=3,69=1/1;
 5/5=2,38=5/2;
 7//1,2,3,16;
 1/18=20,19=15,26=3/3(-5);
 2/9=110/2;
 6/7=2,8=2,9=2,10=2,19=2,28=1/1;
 99/9=1/99;
 Leave Link    1 at Fri Jan 10 11:47:56 2020, MaxMem=  6710886400 cpu:               0.2 elap:               0.0
 (Enter /apps/gaussian/g16-a03/l101.exe)
 -------------------
 OBT_3m_opt_freq.gjf
 -------------------
 Symbolic Z-matrix:
 Charge =  0 Multiplicity = 1
 C                    -6.41023   17.63457   0. 
 C                    -5.0372    17.47493   0. 
 C                    -4.32743   18.65215   0. 
 C                    -5.04635   19.80724   0. 
 S                    -6.80236   19.42623   0. 
 O                    -4.5094    16.18706   0. 
 H                    -3.24887   18.63126   0. 
 C                    -7.43355   16.63538   0. 
 C                    -8.80658   16.79502   0. 
 C                    -9.56871   15.58351   0. 
 C                    -8.79743   14.4627   0. 
 S                    -7.04043   14.84389   0. 
 O                    -9.33536   18.08272   0. 
 H                    -10.64709   15.55477   0. 
 C                    -3.06583   16.02417   0. 
 H                    -2.61992   16.46291   0.894 
 H                    -2.62009   16.4639  -0.895 
 H                    -2.90313   14.95127  -0.001 
 C                    -10.77794   18.24578   0. 
 H                    -10.94164   19.31851   0. 
 H                    -11.22369   17.80605  -0.895 
 H                    -11.22369   17.80605   0.894 
 C                    -11.17994   11.10034   0. 
 C                    -9.83165   10.79566   0. 
 C                    -8.9637    11.90939   0. 
 C                    -9.59285   13.11573   0. 
 S                    -11.37941   12.92352   0. 
 O                    -9.44374   9.45898   0. 
 H                    -7.88984   11.80668   0. 
 C                    -12.30366   10.21557   0. 
 C                    -13.65195   10.52025   0. 
 C                    -14.53854   9.39661   0. 
 C                    -13.89075   8.20018   0. 
 S                    -12.10319   8.39245   0. 
 O                    -14.04086   11.85687   0. 
 H                    -15.61386   9.48266   0. 
 C                    -8.02566   9.14357   0. 
 H                    -7.53564   9.53244   0.894 
 H                    -7.5357    9.53344  -0.895 
 H                    -7.97791   8.05946  -0.001 
 C                    -15.45794   12.17234   0. 
 H                    -15.50669   13.25639   0. 
 H                    -15.9479   11.78247  -0.895 
 H                    -15.9479   11.78247   0.894 
 H                    -14.3097   7.21055   0.001 
 C                    -1.58721   24.10923   0. 
 C                    -0.2304    23.8451   0. 
 C                     0.62211   24.99481   0. 
 C                    -0.06125   26.17129   0. 
 S                    -1.84125   25.92561   0. 
 O                     0.19741   22.52065   0. 
 H                     1.69953   24.94103   0. 
 C                    -2.68391   23.19117   0. 
 C                    -4.04072   23.4553   0. 
 C                    -4.89324   22.30559   0. 
 C                    -4.20988   21.12911   0. 
 S                    -2.42888   21.37488   0. 
 O                    -4.46953   24.77966   0. 
 H                    -5.97066   22.35937   0. 
 C                     1.6243    22.24789   0. 
 H                     2.10244   22.65127   0.894 
 H                     2.10235   22.65226  -0.895 
 H                     1.70452   21.16569  -0.001 
 C                    -5.89543   25.05251   0. 
 H                    -5.97665   26.13462   0. 
 H                    -6.37348   24.64814  -0.895 
 H                    -6.37348   24.64814   0.894 
 H                     0.32784   27.17303   0.001 
 
 ITRead=  0  0  0  0  0  0  0  0  0  0  0  0  0  0  0  0  0  0  0  0
 ITRead=  0  0  0  0  0  0  0  0  0  0  0  0  0  0  0  0  0  0  0  0
 ITRead=  0  0  0  0  0  0  0  0  0  0  0  0  0  0  0  0  0  0  0  0
 ITRead=  0  0  0  0  0  0  0  0
 MicOpt= -1 -1 -1 -1 -1 -1 -1 -1 -1 -1 -1 -1 -1 -1 -1 -1 -1 -1 -1 -1
 MicOpt= -1 -1 -1 -1 -1 -1 -1 -1 -1 -1 -1 -1 -1 -1 -1 -1 -1 -1 -1 -1
 MicOpt= -1 -1 -1 -1 -1 -1 -1 -1 -1 -1 -1 -1 -1 -1 -1 -1 -1 -1 -1 -1
 MicOpt= -1 -1 -1 -1 -1 -1 -1 -1
 NAtoms=     68 NQM=       68 NQMF=       0 NMMI=      0 NMMIF=      0
                NMic=       0 NMicF=      0.
                    Isotopes and Nuclear Properties:
 (Nuclear quadrupole moments (NQMom) in fm**2, nuclear magnetic moments (NMagM)
  in nuclear magnetons)

  Atom         1           2           3           4           5           6           7           8           9          10
 IAtWgt=          12          12          12          12          32          16           1          12          12          12
 AtmWgt=  12.0000000  12.0000000  12.0000000  12.0000000  31.9720718  15.9949146   1.0078250  12.0000000  12.0000000  12.0000000
 NucSpn=           0           0           0           0           0           0           1           0           0           0
 AtZEff=  -0.0000000  -0.0000000  -0.0000000  -0.0000000  -0.0000000  -0.0000000  -0.0000000  -0.0000000  -0.0000000  -0.0000000
 NQMom=    0.0000000   0.0000000   0.0000000   0.0000000   0.0000000   0.0000000   0.0000000   0.0000000   0.0000000   0.0000000
 NMagM=    0.0000000   0.0000000   0.0000000   0.0000000   0.0000000   0.0000000   2.7928460   0.0000000   0.0000000   0.0000000
 AtZNuc=   6.0000000   6.0000000   6.0000000   6.0000000  16.0000000   8.0000000   1.0000000   6.0000000   6.0000000   6.0000000

  Atom        11          12          13          14          15          16          17          18          19          20
 IAtWgt=          12          32          16           1          12           1           1           1          12           1
 AtmWgt=  12.0000000  31.9720718  15.9949146   1.0078250  12.0000000   1.0078250   1.0078250   1.0078250  12.0000000   1.0078250
 NucSpn=           0           0           0           1           0           1           1           1           0           1
 AtZEff=  -0.0000000  -0.0000000  -0.0000000  -0.0000000  -0.0000000  -0.0000000  -0.0000000  -0.0000000  -0.0000000  -0.0000000
 NQMom=    0.0000000   0.0000000   0.0000000   0.0000000   0.0000000   0.0000000   0.0000000   0.0000000   0.0000000   0.0000000
 NMagM=    0.0000000   0.0000000   0.0000000   2.7928460   0.0000000   2.7928460   2.7928460   2.7928460   0.0000000   2.7928460
 AtZNuc=   6.0000000  16.0000000   8.0000000   1.0000000   6.0000000   1.0000000   1.0000000   1.0000000   6.0000000   1.0000000

  Atom        21          22          23          24          25          26          27          28          29          30
 IAtWgt=           1           1          12          12          12          12          32          16           1          12
 AtmWgt=   1.0078250   1.0078250  12.0000000  12.0000000  12.0000000  12.0000000  31.9720718  15.9949146   1.0078250  12.0000000
 NucSpn=           1           1           0           0           0           0           0           0           1           0
 AtZEff=  -0.0000000  -0.0000000  -0.0000000  -0.0000000  -0.0000000  -0.0000000  -0.0000000  -0.0000000  -0.0000000  -0.0000000
 NQMom=    0.0000000   0.0000000   0.0000000   0.0000000   0.0000000   0.0000000   0.0000000   0.0000000   0.0000000   0.0000000
 NMagM=    2.7928460   2.7928460   0.0000000   0.0000000   0.0000000   0.0000000   0.0000000   0.0000000   2.7928460   0.0000000
 AtZNuc=   1.0000000   1.0000000   6.0000000   6.0000000   6.0000000   6.0000000  16.0000000   8.0000000   1.0000000   6.0000000

  Atom        31          32          33          34          35          36          37          38          39          40
 IAtWgt=          12          12          12          32          16           1          12           1           1           1
 AtmWgt=  12.0000000  12.0000000  12.0000000  31.9720718  15.9949146   1.0078250  12.0000000   1.0078250   1.0078250   1.0078250
 NucSpn=           0           0           0           0           0           1           0           1           1           1
 AtZEff=  -0.0000000  -0.0000000  -0.0000000  -0.0000000  -0.0000000  -0.0000000  -0.0000000  -0.0000000  -0.0000000  -0.0000000
 NQMom=    0.0000000   0.0000000   0.0000000   0.0000000   0.0000000   0.0000000   0.0000000   0.0000000   0.0000000   0.0000000
 NMagM=    0.0000000   0.0000000   0.0000000   0.0000000   0.0000000   2.7928460   0.0000000   2.7928460   2.7928460   2.7928460
 AtZNuc=   6.0000000   6.0000000   6.0000000  16.0000000   8.0000000   1.0000000   6.0000000   1.0000000   1.0000000   1.0000000

  Atom        41          42          43          44          45          46          47          48          49          50
 IAtWgt=          12           1           1           1           1          12          12          12          12          32
 AtmWgt=  12.0000000   1.0078250   1.0078250   1.0078250   1.0078250  12.0000000  12.0000000  12.0000000  12.0000000  31.9720718
 NucSpn=           0           1           1           1           1           0           0           0           0           0
 AtZEff=  -0.0000000  -0.0000000  -0.0000000  -0.0000000  -0.0000000  -0.0000000  -0.0000000  -0.0000000  -0.0000000  -0.0000000
 NQMom=    0.0000000   0.0000000   0.0000000   0.0000000   0.0000000   0.0000000   0.0000000   0.0000000   0.0000000   0.0000000
 NMagM=    0.0000000   2.7928460   2.7928460   2.7928460   2.7928460   0.0000000   0.0000000   0.0000000   0.0000000   0.0000000
 AtZNuc=   6.0000000   1.0000000   1.0000000   1.0000000   1.0000000   6.0000000   6.0000000   6.0000000   6.0000000  16.0000000

  Atom        51          52          53          54          55          56          57          58          59          60
 IAtWgt=          16           1          12          12          12          12          32          16           1          12
 AtmWgt=  15.9949146   1.0078250  12.0000000  12.0000000  12.0000000  12.0000000  31.9720718  15.9949146   1.0078250  12.0000000
 NucSpn=           0           1           0           0           0           0           0           0           1           0
 AtZEff=  -0.0000000  -0.0000000  -0.0000000  -0.0000000  -0.0000000  -0.0000000  -0.0000000  -0.0000000  -0.0000000  -0.0000000
 NQMom=    0.0000000   0.0000000   0.0000000   0.0000000   0.0000000   0.0000000   0.0000000   0.0000000   0.0000000   0.0000000
 NMagM=    0.0000000   2.7928460   0.0000000   0.0000000   0.0000000   0.0000000   0.0000000   0.0000000   2.7928460   0.0000000
 AtZNuc=   8.0000000   1.0000000   6.0000000   6.0000000   6.0000000   6.0000000  16.0000000   8.0000000   1.0000000   6.0000000

  Atom        61          62          63          64          65          66          67          68
 IAtWgt=           1           1           1          12           1           1           1           1
 AtmWgt=   1.0078250   1.0078250   1.0078250  12.0000000   1.0078250   1.0078250   1.0078250   1.0078250
 NucSpn=           1           1           1           0           1           1           1           1
 AtZEff=  -0.0000000  -0.0000000  -0.0000000  -0.0000000  -0.0000000  -0.0000000  -0.0000000  -0.0000000
 NQMom=    0.0000000   0.0000000   0.0000000   0.0000000   0.0000000   0.0000000   0.0000000   0.0000000
 NMagM=    2.7928460   2.7928460   2.7928460   0.0000000   2.7928460   2.7928460   2.7928460   2.7928460
 AtZNuc=   1.0000000   1.0000000   1.0000000   6.0000000   1.0000000   1.0000000   1.0000000   1.0000000
 Leave Link  101 at Fri Jan 10 11:47:57 2020, MaxMem=  6710886400 cpu:               3.8 elap:               0.5
 (Enter /apps/gaussian/g16-a03/l103.exe)

 GradGradGradGradGradGradGradGradGradGradGradGradGradGradGradGradGradGrad
 Berny optimization.
 Initialization pass.
                           ----------------------------
                           !    Initial Parameters    !
                           ! (Angstroms and Degrees)  !
 --------------------------                            --------------------------
 ! Name  Definition              Value          Derivative Info.                !
 --------------------------------------------------------------------------------
 ! R1    R(1,2)                  1.3823         estimate D2E/DX2                !
 ! R2    R(1,5)                  1.8341         estimate D2E/DX2                !
 ! R3    R(1,8)                  1.4302         estimate D2E/DX2                !
 ! R4    R(2,3)                  1.3746         estimate D2E/DX2                !
 ! R5    R(2,6)                  1.3918         estimate D2E/DX2                !
 ! R6    R(3,4)                  1.3605         estimate D2E/DX2                !
 ! R7    R(3,7)                  1.0788         estimate D2E/DX2                !
 ! R8    R(4,5)                  1.7969         estimate D2E/DX2                !
 ! R9    R(4,56)                 1.5643         estimate D2E/DX2                !
 ! R10   R(6,15)                 1.4527         estimate D2E/DX2                !
 ! R11   R(8,9)                  1.3823         estimate D2E/DX2                !
 ! R12   R(8,12)                 1.8341         estimate D2E/DX2                !
 ! R13   R(9,10)                 1.4313         estimate D2E/DX2                !
 ! R14   R(9,13)                 1.392          estimate D2E/DX2                !
 ! R15   R(10,11)                1.3605         estimate D2E/DX2                !
 ! R16   R(10,14)                1.0788         estimate D2E/DX2                !
 ! R17   R(11,12)                1.7979         estimate D2E/DX2                !
 ! R18   R(11,26)                1.5643         estimate D2E/DX2                !
 ! R19   R(13,19)                1.4518         estimate D2E/DX2                !
 ! R20   R(15,16)                1.0911         estimate D2E/DX2                !
 ! R21   R(15,17)                1.0923         estimate D2E/DX2                !
 ! R22   R(15,18)                1.0852         estimate D2E/DX2                !
 ! R23   R(19,20)                1.0851         estimate D2E/DX2                !
 ! R24   R(19,21)                1.0923         estimate D2E/DX2                !
 ! R25   R(19,22)                1.0915         estimate D2E/DX2                !
 ! R26   R(23,24)                1.3823         estimate D2E/DX2                !
 ! R27   R(23,27)                1.8341         estimate D2E/DX2                !
 ! R28   R(23,30)                1.4302         estimate D2E/DX2                !
 ! R29   R(24,25)                1.412          estimate D2E/DX2                !
 ! R30   R(24,28)                1.3918         estimate D2E/DX2                !
 ! R31   R(25,26)                1.3605         estimate D2E/DX2                !
 ! R32   R(25,29)                1.0788         estimate D2E/DX2                !
 ! R33   R(26,27)                1.7969         estimate D2E/DX2                !
 ! R34   R(28,37)                1.4527         estimate D2E/DX2                !
 ! R35   R(30,31)                1.3823         estimate D2E/DX2                !
 ! R36   R(30,34)                1.8341         estimate D2E/DX2                !
 ! R37   R(31,32)                1.4313         estimate D2E/DX2                !
 ! R38   R(31,35)                1.392          estimate D2E/DX2                !
 ! R39   R(32,33)                1.3605         estimate D2E/DX2                !
 ! R40   R(32,36)                1.0788         estimate D2E/DX2                !
 ! R41   R(33,34)                1.7979         estimate D2E/DX2                !
 ! R42   R(33,45)                1.0747         estimate D2E/DX2                !
 ! R43   R(35,41)                1.4518         estimate D2E/DX2                !
 ! R44   R(37,38)                1.0911         estimate D2E/DX2                !
 ! R45   R(37,39)                1.0923         estimate D2E/DX2                !
 ! R46   R(37,40)                1.0852         estimate D2E/DX2                !
 ! R47   R(41,42)                1.0851         estimate D2E/DX2                !
 ! R48   R(41,43)                1.0923         estimate D2E/DX2                !
 ! R49   R(41,44)                1.0915         estimate D2E/DX2                !
 ! R50   R(46,47)                1.3823         estimate D2E/DX2                !
 ! R51   R(46,50)                1.8341         estimate D2E/DX2                !
 ! R52   R(46,53)                1.4302         estimate D2E/DX2                !
 ! R53   R(47,48)                1.4313         estimate D2E/DX2                !
 ! R54   R(47,51)                1.3918         estimate D2E/DX2                !
 ! R55   R(48,49)                1.3605         estimate D2E/DX2                !
 ! R56   R(48,52)                1.0788         estimate D2E/DX2                !
 ! R57   R(49,50)                1.7969         estimate D2E/DX2                !
 ! R58   R(49,68)                1.0747         estimate D2E/DX2                !
 ! R59   R(51,60)                1.4527         estimate D2E/DX2                !
 ! R60   R(53,54)                1.3823         estimate D2E/DX2                !
 ! R61   R(53,57)                1.8341         estimate D2E/DX2                !
 ! R62   R(54,55)                1.4313         estimate D2E/DX2                !
 ! R63   R(54,58)                1.392          estimate D2E/DX2                !
 ! R64   R(55,56)                1.3605         estimate D2E/DX2                !
 ! R65   R(55,59)                1.0788         estimate D2E/DX2                !
 ! R66   R(56,57)                1.7979         estimate D2E/DX2                !
 ! R67   R(58,64)                1.4518         estimate D2E/DX2                !
 ! R68   R(60,61)                1.0911         estimate D2E/DX2                !
 ! R69   R(60,62)                1.0923         estimate D2E/DX2                !
 ! R70   R(60,63)                1.0852         estimate D2E/DX2                !
 ! R71   R(64,65)                1.0851         estimate D2E/DX2                !
 ! R72   R(64,66)                1.0923         estimate D2E/DX2                !
 ! R73   R(64,67)                1.0915         estimate D2E/DX2                !
 ! A1    A(2,1,5)              108.9774         estimate D2E/DX2                !
 ! A2    A(2,1,8)              129.0514         estimate D2E/DX2                !
 ! A3    A(5,1,8)              121.9712         estimate D2E/DX2                !
 ! A4    A(1,2,3)              114.4546         estimate D2E/DX2                !
 ! A5    A(1,2,6)              118.9168         estimate D2E/DX2                !
 ! A6    A(3,2,6)              126.6286         estimate D2E/DX2                !
 ! A7    A(2,3,4)              117.0157         estimate D2E/DX2                !
 ! A8    A(2,3,7)              119.9768         estimate D2E/DX2                !
 ! A9    A(4,3,7)              123.0076         estimate D2E/DX2                !
 ! A10   A(3,4,5)              109.6556         estimate D2E/DX2                !
 ! A11   A(3,4,56)             115.7767         estimate D2E/DX2                !
 ! A12   A(5,4,56)             134.5677         estimate D2E/DX2                !
 ! A13   A(1,5,4)               89.8967         estimate D2E/DX2                !
 ! A14   A(2,6,15)             118.7229         estimate D2E/DX2                !
 ! A15   A(1,8,9)              129.0514         estimate D2E/DX2                !
 ! A16   A(1,8,12)             121.94           estimate D2E/DX2                !
 ! A17   A(9,8,12)             109.0086         estimate D2E/DX2                !
 ! A18   A(8,9,10)             115.5412         estimate D2E/DX2                !
 ! A19   A(8,9,13)             118.957          estimate D2E/DX2                !
 ! A20   A(10,9,13)            125.5018         estimate D2E/DX2                !
 ! A21   A(9,10,11)            113.2927         estimate D2E/DX2                !
 ! A22   A(9,10,14)            123.6997         estimate D2E/DX2                !
 ! A23   A(11,10,14)           123.0076         estimate D2E/DX2                !
 ! A24   A(10,11,12)           112.2934         estimate D2E/DX2                !
 ! A25   A(10,11,26)           114.9029         estimate D2E/DX2                !
 ! A26   A(12,11,26)           132.8037         estimate D2E/DX2                !
 ! A27   A(8,12,11)             89.8641         estimate D2E/DX2                !
 ! A28   A(9,13,19)            118.774          estimate D2E/DX2                !
 ! A29   A(6,15,16)            111.1618         estimate D2E/DX2                !
 ! A30   A(6,15,17)            111.1229         estimate D2E/DX2                !
 ! A31   A(6,15,18)            105.0613         estimate D2E/DX2                !
 ! A32   A(16,15,17)           110.0416         estimate D2E/DX2                !
 ! A33   A(16,15,18)           109.6964         estimate D2E/DX2                !
 ! A34   A(17,15,18)           109.6387         estimate D2E/DX2                !
 ! A35   A(13,19,20)           105.1251         estimate D2E/DX2                !
 ! A36   A(13,19,21)           111.1177         estimate D2E/DX2                !
 ! A37   A(13,19,22)           111.1343         estimate D2E/DX2                !
 ! A38   A(20,19,21)           109.6586         estimate D2E/DX2                !
 ! A39   A(20,19,22)           109.674          estimate D2E/DX2                !
 ! A40   A(21,19,22)           110.0169         estimate D2E/DX2                !
 ! A41   A(24,23,27)           108.9774         estimate D2E/DX2                !
 ! A42   A(24,23,30)           129.0514         estimate D2E/DX2                !
 ! A43   A(27,23,30)           121.9712         estimate D2E/DX2                !
 ! A44   A(23,24,25)           115.1965         estimate D2E/DX2                !
 ! A45   A(23,24,28)           118.9168         estimate D2E/DX2                !
 ! A46   A(25,24,28)           125.8866         estimate D2E/DX2                !
 ! A47   A(24,25,26)           114.5261         estimate D2E/DX2                !
 ! A48   A(24,25,29)           122.4663         estimate D2E/DX2                !
 ! A49   A(26,25,29)           123.0076         estimate D2E/DX2                !
 ! A50   A(11,26,25)           121.8932         estimate D2E/DX2                !
 ! A51   A(11,26,27)           126.7036         estimate D2E/DX2                !
 ! A52   A(25,26,27)           111.4032         estimate D2E/DX2                !
 ! A53   A(23,27,26)            89.8967         estimate D2E/DX2                !
 ! A54   A(24,28,37)           118.7229         estimate D2E/DX2                !
 ! A55   A(23,30,31)           129.0514         estimate D2E/DX2                !
 ! A56   A(23,30,34)           121.94           estimate D2E/DX2                !
 ! A57   A(31,30,34)           109.0086         estimate D2E/DX2                !
 ! A58   A(30,31,32)           115.5412         estimate D2E/DX2                !
 ! A59   A(30,31,35)           118.957          estimate D2E/DX2                !
 ! A60   A(32,31,35)           125.5018         estimate D2E/DX2                !
 ! A61   A(31,32,33)           113.2927         estimate D2E/DX2                !
 ! A62   A(31,32,36)           123.6997         estimate D2E/DX2                !
 ! A63   A(33,32,36)           123.0076         estimate D2E/DX2                !
 ! A64   A(32,33,34)           112.2934         estimate D2E/DX2                !
 ! A65   A(32,33,45)           128.6228         estimate D2E/DX2                !
 ! A66   A(34,33,45)           119.0838         estimate D2E/DX2                !
 ! A67   A(30,34,33)            89.8641         estimate D2E/DX2                !
 ! A68   A(31,35,41)           118.774          estimate D2E/DX2                !
 ! A69   A(28,37,38)           111.1618         estimate D2E/DX2                !
 ! A70   A(28,37,39)           111.1229         estimate D2E/DX2                !
 ! A71   A(28,37,40)           105.0613         estimate D2E/DX2                !
 ! A72   A(38,37,39)           110.0416         estimate D2E/DX2                !
 ! A73   A(38,37,40)           109.6964         estimate D2E/DX2                !
 ! A74   A(39,37,40)           109.6387         estimate D2E/DX2                !
 ! A75   A(35,41,42)           105.1251         estimate D2E/DX2                !
 ! A76   A(35,41,43)           111.1177         estimate D2E/DX2                !
 ! A77   A(35,41,44)           111.1343         estimate D2E/DX2                !
 ! A78   A(42,41,43)           109.6586         estimate D2E/DX2                !
 ! A79   A(42,41,44)           109.674          estimate D2E/DX2                !
 ! A80   A(43,41,44)           110.0169         estimate D2E/DX2                !
 ! A81   A(47,46,50)           108.9774         estimate D2E/DX2                !
 ! A82   A(47,46,53)           129.0514         estimate D2E/DX2                !
 ! A83   A(50,46,53)           121.9712         estimate D2E/DX2                !
 ! A84   A(46,47,48)           115.5412         estimate D2E/DX2                !
 ! A85   A(46,47,51)           118.9168         estimate D2E/DX2                !
 ! A86   A(48,47,51)           125.5419         estimate D2E/DX2                !
 ! A87   A(47,48,49)           113.2927         estimate D2E/DX2                !
 ! A88   A(47,48,52)           123.6997         estimate D2E/DX2                !
 ! A89   A(49,48,52)           123.0076         estimate D2E/DX2                !
 ! A90   A(48,49,50)           112.2919         estimate D2E/DX2                !
 ! A91   A(48,49,68)           128.6228         estimate D2E/DX2                !
 ! A92   A(50,49,68)           119.0853         estimate D2E/DX2                !
 ! A93   A(46,50,49)            89.8967         estimate D2E/DX2                !
 ! A94   A(47,51,60)           118.7229         estimate D2E/DX2                !
 ! A95   A(46,53,54)           129.0514         estimate D2E/DX2                !
 ! A96   A(46,53,57)           121.94           estimate D2E/DX2                !
 ! A97   A(54,53,57)           109.0086         estimate D2E/DX2                !
 ! A98   A(53,54,55)           115.5412         estimate D2E/DX2                !
 ! A99   A(53,54,58)           118.957          estimate D2E/DX2                !
 ! A100  A(55,54,58)           125.5018         estimate D2E/DX2                !
 ! A101  A(54,55,56)           113.2927         estimate D2E/DX2                !
 ! A102  A(54,55,59)           123.6997         estimate D2E/DX2                !
 ! A103  A(56,55,59)           123.0076         estimate D2E/DX2                !
 ! A104  A(4,56,55)            117.5243         estimate D2E/DX2                !
 ! A105  A(4,56,57)            130.1823         estimate D2E/DX2                !
 ! A106  A(55,56,57)           112.2934         estimate D2E/DX2                !
 ! A107  A(53,57,56)            89.8641         estimate D2E/DX2                !
 ! A108  A(54,58,64)           118.774          estimate D2E/DX2                !
 ! A109  A(51,60,61)           111.1618         estimate D2E/DX2                !
 ! A110  A(51,60,62)           111.1229         estimate D2E/DX2                !
 ! A111  A(51,60,63)           105.0613         estimate D2E/DX2                !
 ! A112  A(61,60,62)           110.0416         estimate D2E/DX2                !
 ! A113  A(61,60,63)           109.6964         estimate D2E/DX2                !
 ! A114  A(62,60,63)           109.6387         estimate D2E/DX2                !
 ! A115  A(58,64,65)           105.1251         estimate D2E/DX2                !
 ! A116  A(58,64,66)           111.1177         estimate D2E/DX2                !
 ! A117  A(58,64,67)           111.1343         estimate D2E/DX2                !
 ! A118  A(65,64,66)           109.6586         estimate D2E/DX2                !
 ! A119  A(65,64,67)           109.674          estimate D2E/DX2                !
 ! A120  A(66,64,67)           110.0169         estimate D2E/DX2                !
 ! D1    D(5,1,2,3)              0.0            estimate D2E/DX2                !
 ! D2    D(5,1,2,6)            180.0            estimate D2E/DX2                !
 ! D3    D(8,1,2,3)            180.0            estimate D2E/DX2                !
 ! D4    D(8,1,2,6)              0.0            estimate D2E/DX2                !
 ! D5    D(2,1,5,4)              0.0            estimate D2E/DX2                !
 ! D6    D(8,1,5,4)            180.0            estimate D2E/DX2                !
 ! D7    D(2,1,8,9)            180.0            estimate D2E/DX2                !
 ! D8    D(2,1,8,12)             0.0            estimate D2E/DX2                !
 ! D9    D(5,1,8,9)              0.0            estimate D2E/DX2                !
 ! D10   D(5,1,8,12)           180.0            estimate D2E/DX2                !
 ! D11   D(1,2,3,4)              0.0            estimate D2E/DX2                !
 ! D12   D(1,2,3,7)            180.0            estimate D2E/DX2                !
 ! D13   D(6,2,3,4)            180.0            estimate D2E/DX2                !
 ! D14   D(6,2,3,7)              0.0            estimate D2E/DX2                !
 ! D15   D(1,2,6,15)           180.0            estimate D2E/DX2                !
 ! D16   D(3,2,6,15)             0.0            estimate D2E/DX2                !
 ! D17   D(2,3,4,5)              0.0            estimate D2E/DX2                !
 ! D18   D(2,3,4,56)           180.0            estimate D2E/DX2                !
 ! D19   D(7,3,4,5)            180.0            estimate D2E/DX2                !
 ! D20   D(7,3,4,56)             0.0            estimate D2E/DX2                !
 ! D21   D(3,4,5,1)              0.0            estimate D2E/DX2                !
 ! D22   D(56,4,5,1)           180.0            estimate D2E/DX2                !
 ! D23   D(3,4,56,55)          180.0            estimate D2E/DX2                !
 ! D24   D(3,4,56,57)            0.0            estimate D2E/DX2                !
 ! D25   D(5,4,56,55)            0.0            estimate D2E/DX2                !
 ! D26   D(5,4,56,57)          180.0            estimate D2E/DX2                !
 ! D27   D(2,6,15,16)           61.4715         estimate D2E/DX2                !
 ! D28   D(2,6,15,17)          -61.4509         estimate D2E/DX2                !
 ! D29   D(2,6,15,18)         -179.9453         estimate D2E/DX2                !
 ! D30   D(1,8,9,10)           180.0            estimate D2E/DX2                !
 ! D31   D(1,8,9,13)             0.0            estimate D2E/DX2                !
 ! D32   D(12,8,9,10)            0.0            estimate D2E/DX2                !
 ! D33   D(12,8,9,13)          180.0            estimate D2E/DX2                !
 ! D34   D(1,8,12,11)          180.0            estimate D2E/DX2                !
 ! D35   D(9,8,12,11)            0.0            estimate D2E/DX2                !
 ! D36   D(8,9,10,11)            0.0            estimate D2E/DX2                !
 ! D37   D(8,9,10,14)          180.0            estimate D2E/DX2                !
 ! D38   D(13,9,10,11)         180.0            estimate D2E/DX2                !
 ! D39   D(13,9,10,14)           0.0            estimate D2E/DX2                !
 ! D40   D(8,9,13,19)          180.0            estimate D2E/DX2                !
 ! D41   D(10,9,13,19)           0.0            estimate D2E/DX2                !
 ! D42   D(9,10,11,12)           0.0            estimate D2E/DX2                !
 ! D43   D(9,10,11,26)         180.0            estimate D2E/DX2                !
 ! D44   D(14,10,11,12)        180.0            estimate D2E/DX2                !
 ! D45   D(14,10,11,26)          0.0            estimate D2E/DX2                !
 ! D46   D(10,11,12,8)           0.0            estimate D2E/DX2                !
 ! D47   D(26,11,12,8)         180.0            estimate D2E/DX2                !
 ! D48   D(10,11,26,25)        180.0            estimate D2E/DX2                !
 ! D49   D(10,11,26,27)          0.0            estimate D2E/DX2                !
 ! D50   D(12,11,26,25)          0.0            estimate D2E/DX2                !
 ! D51   D(12,11,26,27)        180.0            estimate D2E/DX2                !
 ! D52   D(9,13,19,20)         180.0            estimate D2E/DX2                !
 ! D53   D(9,13,19,21)         -61.4472         estimate D2E/DX2                !
 ! D54   D(9,13,19,22)          61.4203         estimate D2E/DX2                !
 ! D55   D(27,23,24,25)          0.0            estimate D2E/DX2                !
 ! D56   D(27,23,24,28)        180.0            estimate D2E/DX2                !
 ! D57   D(30,23,24,25)        180.0            estimate D2E/DX2                !
 ! D58   D(30,23,24,28)          0.0            estimate D2E/DX2                !
 ! D59   D(24,23,27,26)          0.0            estimate D2E/DX2                !
 ! D60   D(30,23,27,26)        180.0            estimate D2E/DX2                !
 ! D61   D(24,23,30,31)        180.0            estimate D2E/DX2                !
 ! D62   D(24,23,30,34)          0.0            estimate D2E/DX2                !
 ! D63   D(27,23,30,31)          0.0            estimate D2E/DX2                !
 ! D64   D(27,23,30,34)        180.0            estimate D2E/DX2                !
 ! D65   D(23,24,25,26)          0.0            estimate D2E/DX2                !
 ! D66   D(23,24,25,29)        180.0            estimate D2E/DX2                !
 ! D67   D(28,24,25,26)        180.0            estimate D2E/DX2                !
 ! D68   D(28,24,25,29)          0.0            estimate D2E/DX2                !
 ! D69   D(23,24,28,37)        180.0            estimate D2E/DX2                !
 ! D70   D(25,24,28,37)          0.0            estimate D2E/DX2                !
 ! D71   D(24,25,26,11)        180.0            estimate D2E/DX2                !
 ! D72   D(24,25,26,27)          0.0            estimate D2E/DX2                !
 ! D73   D(29,25,26,11)          0.0            estimate D2E/DX2                !
 ! D74   D(29,25,26,27)        180.0            estimate D2E/DX2                !
 ! D75   D(11,26,27,23)        180.0            estimate D2E/DX2                !
 ! D76   D(25,26,27,23)          0.0            estimate D2E/DX2                !
 ! D77   D(24,28,37,38)         61.4715         estimate D2E/DX2                !
 ! D78   D(24,28,37,39)        -61.4509         estimate D2E/DX2                !
 ! D79   D(24,28,37,40)       -179.9453         estimate D2E/DX2                !
 ! D80   D(23,30,31,32)        180.0            estimate D2E/DX2                !
 ! D81   D(23,30,31,35)          0.0            estimate D2E/DX2                !
 ! D82   D(34,30,31,32)          0.0            estimate D2E/DX2                !
 ! D83   D(34,30,31,35)        180.0            estimate D2E/DX2                !
 ! D84   D(23,30,34,33)        180.0            estimate D2E/DX2                !
 ! D85   D(31,30,34,33)          0.0            estimate D2E/DX2                !
 ! D86   D(30,31,32,33)          0.0            estimate D2E/DX2                !
 ! D87   D(30,31,32,36)        180.0            estimate D2E/DX2                !
 ! D88   D(35,31,32,33)        180.0            estimate D2E/DX2                !
 ! D89   D(35,31,32,36)          0.0            estimate D2E/DX2                !
 ! D90   D(30,31,35,41)        180.0            estimate D2E/DX2                !
 ! D91   D(32,31,35,41)          0.0            estimate D2E/DX2                !
 ! D92   D(31,32,33,34)          0.0            estimate D2E/DX2                !
 ! D93   D(31,32,33,45)        179.9318         estimate D2E/DX2                !
 ! D94   D(36,32,33,34)        180.0            estimate D2E/DX2                !
 ! D95   D(36,32,33,45)         -0.0682         estimate D2E/DX2                !
 ! D96   D(32,33,34,30)          0.0            estimate D2E/DX2                !
 ! D97   D(45,33,34,30)       -179.939          estimate D2E/DX2                !
 ! D98   D(31,35,41,42)        180.0            estimate D2E/DX2                !
 ! D99   D(31,35,41,43)        -61.4472         estimate D2E/DX2                !
 ! D100  D(31,35,41,44)         61.4203         estimate D2E/DX2                !
 ! D101  D(50,46,47,48)          0.0            estimate D2E/DX2                !
 ! D102  D(50,46,47,51)        180.0            estimate D2E/DX2                !
 ! D103  D(53,46,47,48)        180.0            estimate D2E/DX2                !
 ! D104  D(53,46,47,51)          0.0            estimate D2E/DX2                !
 ! D105  D(47,46,50,49)          0.0            estimate D2E/DX2                !
 ! D106  D(53,46,50,49)        180.0            estimate D2E/DX2                !
 ! D107  D(47,46,53,54)        180.0            estimate D2E/DX2                !
 ! D108  D(47,46,53,57)          0.0            estimate D2E/DX2                !
 ! D109  D(50,46,53,54)          0.0            estimate D2E/DX2                !
 ! D110  D(50,46,53,57)        180.0            estimate D2E/DX2                !
 ! D111  D(46,47,48,49)          0.0            estimate D2E/DX2                !
 ! D112  D(46,47,48,52)        180.0            estimate D2E/DX2                !
 ! D113  D(51,47,48,49)        180.0            estimate D2E/DX2                !
 ! D114  D(51,47,48,52)          0.0            estimate D2E/DX2                !
 ! D115  D(46,47,51,60)        180.0            estimate D2E/DX2                !
 ! D116  D(48,47,51,60)          0.0            estimate D2E/DX2                !
 ! D117  D(47,48,49,50)          0.0            estimate D2E/DX2                !
 ! D118  D(47,48,49,68)        179.9318         estimate D2E/DX2                !
 ! D119  D(52,48,49,50)        180.0            estimate D2E/DX2                !
 ! D120  D(52,48,49,68)         -0.0682         estimate D2E/DX2                !
 ! D121  D(48,49,50,46)          0.0            estimate D2E/DX2                !
 ! D122  D(68,49,50,46)       -179.939          estimate D2E/DX2                !
 ! D123  D(47,51,60,61)         61.4715         estimate D2E/DX2                !
 ! D124  D(47,51,60,62)        -61.4509         estimate D2E/DX2                !
 ! D125  D(47,51,60,63)       -179.9453         estimate D2E/DX2                !
 ! D126  D(46,53,54,55)        180.0            estimate D2E/DX2                !
 ! D127  D(46,53,54,58)          0.0            estimate D2E/DX2                !
 ! D128  D(57,53,54,55)          0.0            estimate D2E/DX2                !
 ! D129  D(57,53,54,58)        180.0            estimate D2E/DX2                !
 ! D130  D(46,53,57,56)        180.0            estimate D2E/DX2                !
 ! D131  D(54,53,57,56)          0.0            estimate D2E/DX2                !
 ! D132  D(53,54,55,56)          0.0            estimate D2E/DX2                !
 ! D133  D(53,54,55,59)        180.0            estimate D2E/DX2                !
 ! D134  D(58,54,55,56)        180.0            estimate D2E/DX2                !
 ! D135  D(58,54,55,59)          0.0            estimate D2E/DX2                !
 ! D136  D(53,54,58,64)        180.0            estimate D2E/DX2                !
 ! D137  D(55,54,58,64)          0.0            estimate D2E/DX2                !
 ! D138  D(54,55,56,4)         180.0            estimate D2E/DX2                !
 ! D139  D(54,55,56,57)          0.0            estimate D2E/DX2                !
 ! D140  D(59,55,56,4)           0.0            estimate D2E/DX2                !
 ! D141  D(59,55,56,57)        180.0            estimate D2E/DX2                !
 ! D142  D(4,56,57,53)         180.0            estimate D2E/DX2                !
 ! D143  D(55,56,57,53)          0.0            estimate D2E/DX2                !
 ! D144  D(54,58,64,65)        180.0            estimate D2E/DX2                !
 ! D145  D(54,58,64,66)        -61.4472         estimate D2E/DX2                !
 ! D146  D(54,58,64,67)         61.4203         estimate D2E/DX2                !
 --------------------------------------------------------------------------------
 Trust Radius=3.00D-01 FncErr=1.00D-07 GrdErr=1.00D-06 EigMax=2.50D+02 EigMin=1.00D-04
 Number of steps in this run=    349 maximum allowed number of steps=    408.
 GradGradGradGradGradGradGradGradGradGradGradGradGradGradGradGradGradGrad

 Leave Link  103 at Fri Jan 10 11:47:57 2020, MaxMem=  6710886400 cpu:               0.1 elap:               0.0
 (Enter /apps/gaussian/g16-a03/l202.exe)
 Stoichiometry    C30H26O6S6
 Framework group  C1[X(C30H26O6S6)]
 Deg. of freedom   198
 Full point group                 C1      NOp   1
 Largest Abelian subgroup         C1      NOp   1
 Largest concise Abelian subgroup C1      NOp   1
                         Standard orientation:                         
 ---------------------------------------------------------------------
 Center     Atomic      Atomic             Coordinates (Angstroms)
 Number     Number       Type             X           Y           Z
 ---------------------------------------------------------------------
      1          6           0        0.706915    0.115143   -0.000020
      2          6           0        1.423025    1.297465   -0.000020
      3          6           0        2.788135    1.135944   -0.000020
      4          6           0        3.259439   -0.140362   -0.000020
      5         16           0        1.881411   -1.293527   -0.000020
      6          8           0        0.729623    2.504271   -0.000020
      7          1           0        3.433203    2.000591   -0.000020
      8          6           0       -0.709921   -0.080170   -0.000020
      9          6           0       -1.426031   -1.262492   -0.000020
     10          6           0       -2.850344   -1.121298   -0.000020
     11          6           0       -3.262444    0.175335   -0.000020
     12         16           0       -1.883680    1.329176   -0.000020
     13          8           0       -0.733365   -2.469975   -0.000020
     14          1           0       -3.534500   -1.955360   -0.000020
     15          6           0        1.486432    3.744296   -0.000020
     16          1           0        2.106460    3.827350   -0.894020
     17          1           0        2.107136    3.826613    0.894980
     18          1           0        0.738874    4.530897    0.000980
     19          6           0       -1.489437   -3.709323   -0.000020
     20          1           0       -0.742616   -4.496600   -0.000020
     21          1           0       -2.110142   -3.791640    0.894980
     22          1           0       -2.110142   -3.791640   -0.894020
     23          6           0       -7.379385    0.356075   -0.000020
     24          6           0       -6.793003    1.607815   -0.000020
     25          6           0       -5.381002    1.610171   -0.000020
     26          6           0       -4.814164    0.373329   -0.000020
     27         16           0       -6.061813   -0.919776   -0.000020
     28          8           0       -7.610751    2.734082   -0.000020
     29          1           0       -4.803439    2.521296   -0.000020
     30          6           0       -8.767435    0.011270   -0.000020
     31          6           0       -9.353817   -1.240470   -0.000020
     32          6           0      -10.785070   -1.251470   -0.000020
     33          6           0      -11.332657   -0.005984   -0.000020
     34         16           0      -10.084347    1.287871   -0.000020
     35          8           0       -8.536730   -2.367488   -0.000020
     36          1           0      -11.376696   -2.153527   -0.000020
     37          6           0       -6.990034    4.047524   -0.000020
     38          1           0       -6.382346    4.196012   -0.894020
     39          1           0       -6.381595    4.195351    0.894980
     40          1           0       -7.816967    4.750211    0.000980
     41          6           0       -9.156786   -3.680179   -0.000020
     42          1           0       -8.330514   -4.383616   -0.000020
     43          1           0       -9.765225   -3.828006    0.894980
     44          1           0       -9.765225   -3.828006   -0.894020
     45          1           0      -12.371227    0.270160   -0.001020
     46          6           0        8.778861   -0.047139   -0.000020
     47          6           0        9.402501    1.186462   -0.000020
     48          6           0       10.833440    1.154554   -0.000020
     49          6           0       11.343448   -0.106785   -0.000020
     50         16           0       10.057598   -1.361911   -0.000020
     51          8           0        8.618880    2.336735   -0.000020
     52          1           0       11.451839    2.038472   -0.000020
     53          6           0        7.381100   -0.350183   -0.000020
     54          6           0        6.757461   -1.583784   -0.000020
     55          6           0        5.326521   -1.551876   -0.000020
     56          6           0        4.816514   -0.290537   -0.000020
     57         16           0        6.103046    0.965319   -0.000020
     58          8           0        7.540398   -2.734787   -0.000020
     59          1           0        4.708122   -2.435794   -0.000020
     60          6           0        9.278689    3.630980   -0.000020
     61          1           0        9.890555    3.761186   -0.894020
     62          1           0        9.891285    3.760503    0.894980
     63          1           0        8.473191    4.358138    0.000980
     64          6           0        6.881272   -4.028303   -0.000020
     65          1           0        7.686088   -4.756191   -0.000020
     66          1           0        6.268676   -4.157825    0.894980
     67          1           0        6.268676   -4.157825   -0.894020
     68          1           0       12.373274   -0.413936   -0.001020
 ---------------------------------------------------------------------
 Rotational constants (GHZ):           0.1976359           0.0157814           0.0146226
 Leave Link  202 at Fri Jan 10 11:47:57 2020, MaxMem=  6710886400 cpu:               0.1 elap:               0.0
 (Enter /apps/gaussian/g16-a03/l301.exe)
 Standard basis: 6-311G (5D, 7F)
 Ernie: Thresh=  0.10000D-02 Tol=  0.10000D-05 Strict=F.
 There are   672 symmetry adapted cartesian basis functions of A   symmetry.
 There are   672 symmetry adapted basis functions of A   symmetry.
   672 basis functions,  1306 primitive gaussians,   672 cartesian basis functions
   175 alpha electrons      175 beta electrons
       nuclear repulsion energy      5554.4906525816 Hartrees.
 IExCor=  402 DFT=T Ex+Corr=B3LYP ExCW=0 ScaHFX=  0.200000
 ScaDFX=  0.800000  0.720000  1.000000  0.810000 ScalE2=  1.000000  1.000000
 IRadAn=      5 IRanWt=     -1 IRanGd=            0 ICorTp=0 IEmpDi=  4
 NAtoms=   68 NActive=   68 NUniq=   68 SFac= 1.00D+00 NAtFMM=   60 NAOKFM=T Big=T
 Integral buffers will be    131072 words long.
 Raffenetti 2 integral format.
 Two-electron integral symmetry is turned on.
 Leave Link  301 at Fri Jan 10 11:47:57 2020, MaxMem=  6710886400 cpu:               0.6 elap:               0.1
 (Enter /apps/gaussian/g16-a03/l302.exe)
 NPDir=0 NMtPBC=     1 NCelOv=     1 NCel=       1 NClECP=     1 NCelD=      1
         NCelK=      1 NCelE2=     1 NClLst=     1 CellRange=     0.0.
 One-electron integrals computed using PRISM.
 One-electron integral symmetry used in STVInt
 NBasis=   672 RedAO= T EigKep=  2.57D-04  NBF=   672
 NBsUse=   672 1.00D-06 EigRej= -1.00D+00 NBFU=   672
 Precomputing XC quadrature grid using
 IXCGrd= 4 IRadAn=           5 IRanWt=          -1 IRanGd=           0 AccXCQ= 0.00D+00.
 Generated NRdTot=       0 NPtTot=           0 NUsed=           0 NTot=          32
 NSgBfM=   504   503   504   504   504 MxSgAt=    68 MxSgA2=    68.
 Leave Link  302 at Fri Jan 10 11:47:59 2020, MaxMem=  6710886400 cpu:              13.1 elap:               1.7
 (Enter /apps/gaussian/g16-a03/l303.exe)
 DipDrv:  MaxL=1.
 Leave Link  303 at Fri Jan 10 11:47:59 2020, MaxMem=  6710886400 cpu:               0.8 elap:               0.1
 (Enter /apps/gaussian/g16-a03/l401.exe)
 ExpMin= 7.71D-02 ExpMax= 9.34D+04 ExpMxC= 3.17D+03 IAcc=3 IRadAn=         5 AccDes= 0.00D+00
 Harris functional with IExCor=  402 and IRadAn=       5 diagonalized for initial guess.
 HarFok:  IExCor=  402 AccDes= 0.00D+00 IRadAn=         5 IDoV= 1 UseB2=F ITyADJ=14
 ICtDFT=  3500011 ScaDFX=  1.000000  1.000000  1.000000  1.000000
 FoFCou: FMM=F IPFlag=           0 FMFlag=      100000 FMFlg1=        2001
         NFxFlg=           0 DoJE=T BraDBF=F KetDBF=T FulRan=T
         wScrn=  0.000000 ICntrl=       500 IOpCl=  0 I1Cent=   200000004 NGrid=           0
         NMat0=    1 NMatS0=      1 NMatT0=    0 NMatD0=    1 NMtDS0=    0 NMtDT0=    0
 Petite list used in FoFCou.
 Harris En= -3998.86985946606    
 JPrj=0 DoOrth=F DoCkMO=F.
 Leave Link  401 at Fri Jan 10 11:48:06 2020, MaxMem=  6710886400 cpu:              54.2 elap:               6.8
 (Enter /apps/gaussian/g16-a03/l502.exe)
 Integral symmetry usage will be decided dynamically.
 Closed shell SCF:
 Using DIIS extrapolation, IDIIS=  1040.
 NGot=  6710886400 LenX=  6709970584 LenY=  6709518328
 Requested convergence on RMS density matrix=1.00D-08 within 128 cycles.
 Requested convergence on MAX density matrix=1.00D-06.
 Requested convergence on             energy=1.00D-06.
 No special actions if energy rises.
 Fock matrices will be formed incrementally for  20 cycles.
 Integral accuracy reduced to 1.0D-05 until final iterations.

 Cycle   1  Pass 0  IDiag  1:
 FoFJK:  IHMeth= 1 ICntrl=       0 DoSepK=F KAlg= 0 I1Cent=           0 FoldK=F
 IRaf= 530000000 NMat=       1 IRICut=       1 DoRegI=T DoRafI=F ISym2E= 0 IDoP0=0 IntGTp=1.
 FoFCou: FMM=T IPFlag=           0 FMFlag=      100000 FMFlg1=        2001
         NFxFlg=           0 DoJE=F BraDBF=F KetDBF=F FulRan=T
         wScrn=  0.000000 ICntrl=         0 IOpCl=  0 I1Cent=           0 NGrid=           0
         NMat0=    1 NMatS0=      1 NMatT0=    0 NMatD0=    1 NMtDS0=    0 NMtDT0=    0
 Symmetry not used in FoFCou.
 FMM levels:  10  Number of levels for PrismC:   9
 E= -3997.98667080220    
 DIIS: error= 3.54D-02 at cycle   1 NSaved=   1.
 NSaved= 1 IEnMin= 1 EnMin= -3997.98667080220     IErMin= 1 ErrMin= 3.54D-02
 ErrMax= 3.54D-02  0.00D+00 EMaxC= 1.00D-01 BMatC= 1.18D+00 BMatP= 1.18D+00
 IDIUse=3 WtCom= 6.46D-01 WtEn= 3.54D-01
 Coeff-Com:  0.100D+01
 Coeff-En:   0.100D+01
 Coeff:      0.100D+01
 Gap=     0.047 Goal=   None    Shift=    0.000
 GapD=    0.047 DampG=0.250 DampE=0.500 DampFc=0.2500 IDamp=-1.
 Damping current iteration by 2.50D-01
 RMSDP=3.91D-03 MaxDP=1.33D-01              OVMax= 2.69D-01

 Cycle   2  Pass 0  IDiag  1:
 RMSU=  9.78D-04    CP:  9.99D-01
 E= -3998.37716292686     Delta-E=       -0.390492124661 Rises=F Damp=T
 DIIS: error= 1.75D-02 at cycle   2 NSaved=   2.
 NSaved= 2 IEnMin= 2 EnMin= -3998.37716292686     IErMin= 2 ErrMin= 1.75D-02
 ErrMax= 1.75D-02  0.00D+00 EMaxC= 1.00D-01 BMatC= 2.91D-01 BMatP= 1.18D+00
 IDIUse=3 WtCom= 8.25D-01 WtEn= 1.75D-01
 Coeff-Com: -0.798D+00 0.180D+01
 Coeff-En:   0.000D+00 0.100D+01
 Coeff:     -0.659D+00 0.166D+01
 Gap=     0.087 Goal=   None    Shift=    0.000
 RMSDP=1.60D-03 MaxDP=1.03D-01 DE=-3.90D-01 OVMax= 2.17D-01

 Cycle   3  Pass 0  IDiag  1:
 RMSU=  1.44D-03    CP:  1.03D+00  1.64D+00
 E= -3998.99888830740     Delta-E=       -0.621725380537 Rises=F Damp=F
 DIIS: error= 4.89D-03 at cycle   3 NSaved=   3.
 NSaved= 3 IEnMin= 3 EnMin= -3998.99888830740     IErMin= 3 ErrMin= 4.89D-03
 ErrMax= 4.89D-03  0.00D+00 EMaxC= 1.00D-01 BMatC= 1.19D-02 BMatP= 2.91D-01
 IDIUse=3 WtCom= 9.51D-01 WtEn= 4.89D-02
 Coeff-Com: -0.154D+00 0.369D+00 0.785D+00
 Coeff-En:   0.000D+00 0.000D+00 0.100D+01
 Coeff:     -0.146D+00 0.351D+00 0.796D+00
 Gap=     0.093 Goal=   None    Shift=    0.000
 RMSDP=4.54D-04 MaxDP=2.90D-02 DE=-6.22D-01 OVMax= 4.74D-02

 Cycle   4  Pass 0  IDiag  1:
 RMSU=  3.66D-04    CP:  1.02D+00  1.71D+00  8.19D-01
 E= -3998.99654165176     Delta-E=        0.002346655643 Rises=F Damp=F
 DIIS: error= 4.68D-03 at cycle   4 NSaved=   4.
 NSaved= 4 IEnMin= 3 EnMin= -3998.99888830740     IErMin= 4 ErrMin= 4.68D-03
 ErrMax= 4.68D-03  0.00D+00 EMaxC= 1.00D-01 BMatC= 1.41D-02 BMatP= 1.19D-02
 IDIUse=3 WtCom= 1.28D-01 WtEn= 8.72D-01
 Coeff-Com: -0.251D-01 0.767D-01 0.516D+00 0.432D+00
 Coeff-En:   0.000D+00 0.000D+00 0.537D+00 0.463D+00
 Coeff:     -0.320D-02 0.978D-02 0.534D+00 0.459D+00
 Gap=     0.095 Goal=   None    Shift=    0.000
 RMSDP=3.09D-04 MaxDP=1.71D-02 DE= 2.35D-03 OVMax= 3.83D-02

 Cycle   5  Pass 0  IDiag  1:
 RMSU=  1.54D-04    CP:  1.02D+00  1.63D+00  8.12D-01  3.11D-01
 E= -3999.00991931391     Delta-E=       -0.013377662155 Rises=F Damp=F
 DIIS: error= 1.78D-03 at cycle   5 NSaved=   5.
 NSaved= 5 IEnMin= 5 EnMin= -3999.00991931391     IErMin= 5 ErrMin= 1.78D-03
 ErrMax= 1.78D-03  0.00D+00 EMaxC= 1.00D-01 BMatC= 1.59D-03 BMatP= 1.19D-02
 IDIUse=3 WtCom= 9.82D-01 WtEn= 1.78D-02
 Coeff-Com: -0.246D-02 0.140D-01 0.278D+00 0.290D+00 0.421D+00
 Coeff-En:   0.000D+00 0.000D+00 0.000D+00 0.674D-01 0.933D+00
 Coeff:     -0.242D-02 0.138D-01 0.273D+00 0.286D+00 0.430D+00
 Gap=     0.094 Goal=   None    Shift=    0.000
 RMSDP=1.12D-04 MaxDP=7.45D-03 DE=-1.34D-02 OVMax= 1.37D-02

 Cycle   6  Pass 0  IDiag  1:
 RMSU=  5.37D-05    CP:  1.02D+00  1.64D+00  8.26D-01  4.75D-01  5.24D-01
 E= -3999.01148310345     Delta-E=       -0.001563789541 Rises=F Damp=F
 DIIS: error= 6.20D-04 at cycle   6 NSaved=   6.
 NSaved= 6 IEnMin= 6 EnMin= -3999.01148310345     IErMin= 6 ErrMin= 6.20D-04
 ErrMax= 6.20D-04  0.00D+00 EMaxC= 1.00D-01 BMatC= 1.49D-04 BMatP= 1.59D-03
 IDIUse=3 WtCom= 9.94D-01 WtEn= 6.20D-03
 Coeff-Com:  0.361D-02-0.332D-02 0.117D+00 0.129D+00 0.269D+00 0.484D+00
 Coeff-En:   0.000D+00 0.000D+00 0.000D+00 0.000D+00 0.655D-01 0.934D+00
 Coeff:      0.359D-02-0.330D-02 0.117D+00 0.129D+00 0.268D+00 0.487D+00
 Gap=     0.094 Goal=   None    Shift=    0.000
 RMSDP=3.30D-05 MaxDP=2.16D-03 DE=-1.56D-03 OVMax= 4.02D-03

 Cycle   7  Pass 0  IDiag  1:
 RMSU=  1.60D-05    CP:  1.02D+00  1.64D+00  8.34D-01  4.48D-01  6.08D-01
                    CP:  6.09D-01
 E= -3999.01162801620     Delta-E=       -0.000144912745 Rises=F Damp=F
 DIIS: error= 2.32D-04 at cycle   7 NSaved=   7.
 NSaved= 7 IEnMin= 7 EnMin= -3999.01162801620     IErMin= 7 ErrMin= 2.32D-04
 ErrMax= 2.32D-04  0.00D+00 EMaxC= 1.00D-01 BMatC= 2.08D-05 BMatP= 1.49D-04
 IDIUse=3 WtCom= 9.98D-01 WtEn= 2.32D-03
 Coeff-Com:  0.331D-02-0.500D-02 0.325D-01 0.372D-01 0.103D+00 0.314D+00
 Coeff-Com:  0.515D+00
 Coeff-En:   0.000D+00 0.000D+00 0.000D+00 0.000D+00 0.000D+00 0.109D+00
 Coeff-En:   0.891D+00
 Coeff:      0.330D-02-0.499D-02 0.324D-01 0.372D-01 0.102D+00 0.314D+00
 Coeff:      0.516D+00
 Gap=     0.094 Goal=   None    Shift=    0.000
 RMSDP=1.09D-05 MaxDP=5.80D-04 DE=-1.45D-04 OVMax= 1.23D-03

 Cycle   8  Pass 0  IDiag  1:
 RMSU=  6.18D-06    CP:  1.02D+00  1.64D+00  8.35D-01  4.49D-01  5.92D-01
                    CP:  6.94D-01  5.72D-01
 E= -3999.01164820336     Delta-E=       -0.000020187166 Rises=F Damp=F
 DIIS: error= 6.01D-05 at cycle   8 NSaved=   8.
 NSaved= 8 IEnMin= 8 EnMin= -3999.01164820336     IErMin= 8 ErrMin= 6.01D-05
 ErrMax= 6.01D-05  0.00D+00 EMaxC= 1.00D-01 BMatC= 1.74D-06 BMatP= 2.08D-05
 IDIUse=1 WtCom= 1.00D+00 WtEn= 0.00D+00
 Coeff-Com:  0.170D-02-0.275D-02 0.813D-02 0.949D-02 0.334D-01 0.138D+00
 Coeff-Com:  0.304D+00 0.507D+00
 Coeff:      0.170D-02-0.275D-02 0.813D-02 0.949D-02 0.334D-01 0.138D+00
 Coeff:      0.304D+00 0.507D+00
 Gap=     0.094 Goal=   None    Shift=    0.000
 RMSDP=4.97D-06 MaxDP=2.23D-04 DE=-2.02D-05 OVMax= 5.82D-04

 Initial convergence to 1.0D-05 achieved.  Increase integral accuracy.
 Cycle   9  Pass 1  IDiag  1:
 E= -3999.01150404350     Delta-E=        0.000144159867 Rises=F Damp=F
 DIIS: error= 1.51D-04 at cycle   1 NSaved=   1.
 NSaved= 1 IEnMin= 1 EnMin= -3999.01150404350     IErMin= 1 ErrMin= 1.51D-04
 ErrMax= 1.51D-04  0.00D+00 EMaxC= 1.00D-01 BMatC= 7.70D-06 BMatP= 7.70D-06
 IDIUse=3 WtCom= 9.98D-01 WtEn= 1.51D-03
 Coeff-Com:  0.100D+01
 Coeff-En:   0.100D+01
 Coeff:      0.100D+01
 Gap=     0.094 Goal=   None    Shift=    0.000
 RMSDP=4.97D-06 MaxDP=2.23D-04 DE= 1.44D-04 OVMax= 5.39D-04

 Cycle  10  Pass 1  IDiag  1:
 RMSU=  1.23D-04    CP:  9.99D-01
 E= -3999.01151199972     Delta-E=       -0.000007956225 Rises=F Damp=F
 DIIS: error= 5.60D-05 at cycle   2 NSaved=   2.
 NSaved= 2 IEnMin= 2 EnMin= -3999.01151199972     IErMin= 2 ErrMin= 5.60D-05
 ErrMax= 5.60D-05  0.00D+00 EMaxC= 1.00D-01 BMatC= 1.29D-06 BMatP= 7.70D-06
 IDIUse=1 WtCom= 1.00D+00 WtEn= 0.00D+00
 Coeff-Com:  0.179D+00 0.821D+00
 Coeff:      0.179D+00 0.821D+00
 Gap=     0.095 Goal=   None    Shift=    0.000
 RMSDP=6.97D-06 MaxDP=3.34D-04 DE=-7.96D-06 OVMax= 1.12D-03

 Cycle  11  Pass 1  IDiag  1:
 RMSU=  6.92D-06    CP:  9.99D-01  1.01D+00
 E= -3999.01150909158     Delta-E=        0.000002908146 Rises=F Damp=F
 DIIS: error= 9.51D-05 at cycle   3 NSaved=   3.
 NSaved= 3 IEnMin= 2 EnMin= -3999.01151199972     IErMin= 2 ErrMin= 5.60D-05
 ErrMax= 9.51D-05  0.00D+00 EMaxC= 1.00D-01 BMatC= 3.93D-06 BMatP= 1.29D-06
 IDIUse=1 WtCom= 1.00D+00 WtEn= 0.00D+00
 Coeff-Com: -0.510D-02 0.639D+00 0.366D+00
 Coeff:     -0.510D-02 0.639D+00 0.366D+00
 Gap=     0.094 Goal=   None    Shift=    0.000
 RMSDP=4.49D-06 MaxDP=2.48D-04 DE= 2.91D-06 OVMax= 7.31D-04

 Cycle  12  Pass 1  IDiag  1:
 RMSU=  6.98D-07    CP:  9.99D-01  1.01D+00  3.65D-01
 E= -3999.01151337557     Delta-E=       -0.000004283993 Rises=F Damp=F
 DIIS: error= 7.43D-06 at cycle   4 NSaved=   4.
 NSaved= 4 IEnMin= 4 EnMin= -3999.01151337557     IErMin= 4 ErrMin= 7.43D-06
 ErrMax= 7.43D-06  0.00D+00 EMaxC= 1.00D-01 BMatC= 2.75D-08 BMatP= 1.29D-06
 IDIUse=1 WtCom= 1.00D+00 WtEn= 0.00D+00
 Coeff-Com: -0.470D-02 0.415D+00 0.242D+00 0.348D+00
 Coeff:     -0.470D-02 0.415D+00 0.242D+00 0.348D+00
 Gap=     0.094 Goal=   None    Shift=    0.000
 RMSDP=3.78D-07 MaxDP=2.41D-05 DE=-4.28D-06 OVMax= 5.41D-05

 Cycle  13  Pass 1  IDiag  1:
 RMSU=  2.59D-07    CP:  9.99D-01  1.01D+00  3.76D-01  6.22D-01
 E= -3999.01151340469     Delta-E=       -0.000000029118 Rises=F Damp=F
 DIIS: error= 1.11D-06 at cycle   5 NSaved=   5.
 NSaved= 5 IEnMin= 5 EnMin= -3999.01151340469     IErMin= 5 ErrMin= 1.11D-06
 ErrMax= 1.11D-06  0.00D+00 EMaxC= 1.00D-01 BMatC= 9.50D-10 BMatP= 2.75D-08
 IDIUse=1 WtCom= 1.00D+00 WtEn= 0.00D+00
 Coeff-Com: -0.251D-02 0.208D+00 0.121D+00 0.215D+00 0.457D+00
 Coeff:     -0.251D-02 0.208D+00 0.121D+00 0.215D+00 0.457D+00
 Gap=     0.094 Goal=   None    Shift=    0.000
 RMSDP=9.46D-08 MaxDP=5.56D-06 DE=-2.91D-08 OVMax= 1.13D-05

 Cycle  14  Pass 1  IDiag  1:
 RMSU=  6.65D-08    CP:  9.99D-01  1.01D+00  3.75D-01  6.59D-01  7.71D-01
 E= -3999.01151340567     Delta-E=       -0.000000000984 Rises=F Damp=F
 DIIS: error= 4.20D-07 at cycle   6 NSaved=   6.
 NSaved= 6 IEnMin= 6 EnMin= -3999.01151340567     IErMin= 6 ErrMin= 4.20D-07
 ErrMax= 4.20D-07  0.00D+00 EMaxC= 1.00D-01 BMatC= 1.06D-10 BMatP= 9.50D-10
 IDIUse=1 WtCom= 1.00D+00 WtEn= 0.00D+00
 Coeff-Com: -0.790D-03 0.616D-01 0.358D-01 0.809D-01 0.281D+00 0.541D+00
 Coeff:     -0.790D-03 0.616D-01 0.358D-01 0.809D-01 0.281D+00 0.541D+00
 Gap=     0.094 Goal=   None    Shift=    0.000
 RMSDP=3.38D-08 MaxDP=1.74D-06 DE=-9.84D-10 OVMax= 4.38D-06

 Cycle  15  Pass 1  IDiag  1:
 RMSU=  2.88D-08    CP:  9.99D-01  1.01D+00  3.74D-01  6.47D-01  7.82D-01
                    CP:  8.33D-01
 E= -3999.01151340581     Delta-E=       -0.000000000142 Rises=F Damp=F
 DIIS: error= 1.34D-07 at cycle   7 NSaved=   7.
 NSaved= 7 IEnMin= 7 EnMin= -3999.01151340581     IErMin= 7 ErrMin= 1.34D-07
 ErrMax= 1.34D-07  0.00D+00 EMaxC= 1.00D-01 BMatC= 1.47D-11 BMatP= 1.06D-10
 IDIUse=1 WtCom= 1.00D+00 WtEn= 0.00D+00
 Coeff-Com: -0.923D-04 0.546D-02 0.313D-02 0.164D-01 0.922D-01 0.320D+00
 Coeff-Com:  0.563D+00
 Coeff:     -0.923D-04 0.546D-02 0.313D-02 0.164D-01 0.922D-01 0.320D+00
 Coeff:      0.563D+00
 Gap=     0.094 Goal=   None    Shift=    0.000
 RMSDP=8.24D-09 MaxDP=3.85D-07 DE=-1.42D-10 OVMax= 9.79D-07

 SCF Done:  E(RB3LYP) =  -3999.01151341     A.U. after   15 cycles
            NFock= 15  Conv=0.82D-08     -V/T= 2.0021
 KE= 3.990504539446D+03 PE=-2.054602763823D+04 EE= 7.002020932796D+03
 Leave Link  502 at Fri Jan 10 11:50:10 2020, MaxMem=  6710886400 cpu:             988.1 elap:             123.8
 (Enter /apps/gaussian/g16-a03/l601.exe)
 Copying SCF densities to generalized density rwf, IOpCl= 0 IROHF=0.

 **********************************************************************

            Population analysis using the SCF density.

 **********************************************************************

 Orbital symmetries:
       Occupied  (A) (A) (A) (A) (A) (A) (A) (A) (A) (A) (A) (A)
                 (A) (A) (A) (A) (A) (A) (A) (A) (A) (A) (A) (A)
                 (A) (A) (A) (A) (A) (A) (A) (A) (A) (A) (A) (A)
                 (A) (A) (A) (A) (A) (A) (A) (A) (A) (A) (A) (A)
                 (A) (A) (A) (A) (A) (A) (A) (A) (A) (A) (A) (A)
                 (A) (A) (A) (A) (A) (A) (A) (A) (A) (A) (A) (A)
                 (A) (A) (A) (A) (A) (A) (A) (A) (A) (A) (A) (A)
                 (A) (A) (A) (A) (A) (A) (A) (A) (A) (A) (A) (A)
                 (A) (A) (A) (A) (A) (A) (A) (A) (A) (A) (A) (A)
                 (A) (A) (A) (A) (A) (A) (A) (A) (A) (A) (A) (A)
                 (A) (A) (A) (A) (A) (A) (A) (A) (A) (A) (A) (A)
                 (A) (A) (A) (A) (A) (A) (A) (A) (A) (A) (A) (A)
                 (A) (A) (A) (A) (A) (A) (A) (A) (A) (A) (A) (A)
                 (A) (A) (A) (A) (A) (A) (A) (A) (A) (A) (A) (A)
                 (A) (A) (A) (A) (A) (A) (A)
       Virtual   (A) (A) (A) (A) (A) (A) (A) (A) (A) (A) (A) (A)
                 (A) (A) (A) (A) (A) (A) (A) (A) (A) (A) (A) (A)
                 (A) (A) (A) (A) (A) (A) (A) (A) (A) (A) (A) (A)
                 (A) (A) (A) (A) (A) (A) (A) (A) (A) (A) (A) (A)
                 (A) (A) (A) (A) (A) (A) (A) (A) (A) (A) (A) (A)
                 (A) (A) (A) (A) (A) (A) (A) (A) (A) (A) (A) (A)
                 (A) (A) (A) (A) (A) (A) (A) (A) (A) (A) (A) (A)
                 (A) (A) (A) (A) (A) (A) (A) (A) (A) (A) (A) (A)
                 (A) (A) (A) (A) (A) (A) (A) (A) (A) (A) (A) (A)
                 (A) (A) (A) (A) (A) (A) (A) (A) (A) (A) (A) (A)
                 (A) (A) (A) (A) (A) (A) (A) (A) (A) (A) (A) (A)
                 (A) (A) (A) (A) (A) (A) (A) (A) (A) (A) (A) (A)
                 (A) (A) (A) (A) (A) (A) (A) (A) (A) (A) (A) (A)
                 (A) (A) (A) (A) (A) (A) (A) (A) (A) (A) (A) (A)
                 (A) (A) (A) (A) (A) (A) (A) (A) (A) (A) (A) (A)
                 (A) (A) (A) (A) (A) (A) (A) (A) (A) (A) (A) (A)
                 (A) (A) (A) (A) (A) (A) (A) (A) (A) (A) (A) (A)
                 (A) (A) (A) (A) (A) (A) (A) (A) (A) (A) (A) (A)
                 (A) (A) (A) (A) (A) (A) (A) (A) (A) (A) (A) (A)
                 (A) (A) (A) (A) (A) (A) (A) (A) (A) (A) (A) (A)
                 (A) (A) (A) (A) (A) (A) (A) (A) (A) (A) (A) (A)
                 (A) (A) (A) (A) (A) (A) (A) (A) (A) (A) (A) (A)
                 (A) (A) (A) (A) (A) (A) (A) (A) (A) (A) (A) (A)
                 (A) (A) (A) (A) (A) (A) (A) (A) (A) (A) (A) (A)
                 (A) (A) (A) (A) (A) (A) (A) (A) (A) (A) (A) (A)
                 (A) (A) (A) (A) (A) (A) (A) (A) (A) (A) (A) (A)
                 (A) (A) (A) (A) (A) (A) (A) (A) (A) (A) (A) (A)
                 (A) (A) (A) (A) (A) (A) (A) (A) (A) (A) (A) (A)
                 (A) (A) (A) (A) (A) (A) (A) (A) (A) (A) (A) (A)
                 (A) (A) (A) (A) (A) (A) (A) (A) (A) (A) (A) (A)
                 (A) (A) (A) (A) (A) (A) (A) (A) (A) (A) (A) (A)
                 (A) (A) (A) (A) (A) (A) (A) (A) (A) (A) (A) (A)
                 (A) (A) (A) (A) (A) (A) (A) (A) (A) (A) (A) (A)
                 (A) (A) (A) (A) (A) (A) (A) (A) (A) (A) (A) (A)
                 (A) (A) (A) (A) (A) (A) (A) (A) (A) (A) (A) (A)
                 (A) (A) (A) (A) (A) (A) (A) (A) (A) (A) (A) (A)
                 (A) (A) (A) (A) (A) (A) (A) (A) (A) (A) (A) (A)
                 (A) (A) (A) (A) (A) (A) (A) (A) (A) (A) (A) (A)
                 (A) (A) (A) (A) (A) (A) (A) (A) (A) (A) (A) (A)
                 (A) (A) (A) (A) (A) (A) (A) (A) (A) (A) (A) (A)
                 (A) (A) (A) (A) (A) (A) (A) (A) (A) (A) (A) (A)
                 (A) (A) (A) (A) (A)
 The electronic state is 1-A.
 Alpha  occ. eigenvalues --  -88.88585 -88.88519 -88.88368 -88.88215 -88.87782
 Alpha  occ. eigenvalues --  -88.87765 -19.15687 -19.15674 -19.15673 -19.15665
 Alpha  occ. eigenvalues --  -19.15505 -19.15449 -10.24403 -10.24307 -10.24300
 Alpha  occ. eigenvalues --  -10.24271 -10.24191 -10.23859 -10.23512 -10.23497
 Alpha  occ. eigenvalues --  -10.23353 -10.23336 -10.23206 -10.23155 -10.22794
 Alpha  occ. eigenvalues --  -10.22767 -10.22746 -10.22615 -10.22141 -10.22080
 Alpha  occ. eigenvalues --  -10.21942 -10.21942 -10.21859 -10.21854 -10.20656
 Alpha  occ. eigenvalues --  -10.20625 -10.18669 -10.18644 -10.18160 -10.18083
 Alpha  occ. eigenvalues --  -10.18018 -10.17481  -7.97212  -7.97145  -7.97008
 Alpha  occ. eigenvalues --   -7.96877  -7.96436  -7.96420  -5.93578  -5.93515
 Alpha  occ. eigenvalues --   -5.93376  -5.93238  -5.93154  -5.93092  -5.92956
 Alpha  occ. eigenvalues --   -5.92822  -5.92773  -5.92758  -5.92526  -5.92450
 Alpha  occ. eigenvalues --   -5.92361  -5.92345  -5.92314  -5.92191  -5.91796
 Alpha  occ. eigenvalues --   -5.91781  -1.06576  -1.06553  -1.06524  -1.06483
 Alpha  occ. eigenvalues --   -1.06363  -1.06304  -0.89960  -0.89425  -0.88815
 Alpha  occ. eigenvalues --   -0.88105  -0.87297  -0.86936  -0.79545  -0.78378
 Alpha  occ. eigenvalues --   -0.77248  -0.76093  -0.75796  -0.75628  -0.74887
 Alpha  occ. eigenvalues --   -0.74537  -0.74318  -0.73017  -0.72582  -0.72545
 Alpha  occ. eigenvalues --   -0.70176  -0.70055  -0.69997  -0.69327  -0.68235
 Alpha  occ. eigenvalues --   -0.66784  -0.62914  -0.61466  -0.60140  -0.59427
 Alpha  occ. eigenvalues --   -0.58023  -0.57199  -0.55217  -0.55017  -0.54664
 Alpha  occ. eigenvalues --   -0.54568  -0.54319  -0.54154  -0.54026  -0.53267
 Alpha  occ. eigenvalues --   -0.52150  -0.49703  -0.48948  -0.48187  -0.47627
 Alpha  occ. eigenvalues --   -0.47612  -0.47592  -0.47368  -0.47300  -0.47241
 Alpha  occ. eigenvalues --   -0.46956  -0.46823  -0.46355  -0.45656  -0.45403
 Alpha  occ. eigenvalues --   -0.45120  -0.44928  -0.44866  -0.43656  -0.43407
 Alpha  occ. eigenvalues --   -0.42829  -0.42473  -0.41818  -0.41562  -0.41535
 Alpha  occ. eigenvalues --   -0.41465  -0.41450  -0.40981  -0.40624  -0.39169
 Alpha  occ. eigenvalues --   -0.39088  -0.38178  -0.37787  -0.37680  -0.36975
 Alpha  occ. eigenvalues --   -0.36691  -0.36138  -0.35504  -0.34977  -0.34626
 Alpha  occ. eigenvalues --   -0.34477  -0.34000  -0.33872  -0.32966  -0.32889
 Alpha  occ. eigenvalues --   -0.32416  -0.32339  -0.32241  -0.32107  -0.31842
 Alpha  occ. eigenvalues --   -0.31763  -0.31589  -0.31521  -0.29265  -0.28046
 Alpha  occ. eigenvalues --   -0.26423  -0.24560  -0.24473  -0.24249  -0.23864
 Alpha  occ. eigenvalues --   -0.23819  -0.23741  -0.20188  -0.18424  -0.16477
 Alpha virt. eigenvalues --   -0.07028  -0.04820  -0.02371  -0.00337  -0.00271
 Alpha virt. eigenvalues --    0.00384   0.00528   0.01503   0.01808   0.02087
 Alpha virt. eigenvalues --    0.02187   0.03422   0.03959   0.04089   0.04130
 Alpha virt. eigenvalues --    0.04366   0.04805   0.04879   0.04979   0.05256
 Alpha virt. eigenvalues --    0.06661   0.06678   0.06984   0.07146   0.07178
 Alpha virt. eigenvalues --    0.07571   0.07604   0.08417   0.09056   0.09074
 Alpha virt. eigenvalues --    0.09569   0.09730   0.09935   0.10191   0.10365
 Alpha virt. eigenvalues --    0.10546   0.10566   0.10743   0.10852   0.11015
 Alpha virt. eigenvalues --    0.11245   0.11256   0.11357   0.11561   0.11618
 Alpha virt. eigenvalues --    0.11696   0.11737   0.12129   0.12235   0.12645
 Alpha virt. eigenvalues --    0.12787   0.13187   0.13891   0.14741   0.15866
 Alpha virt. eigenvalues --    0.16947   0.16959   0.17942   0.18764   0.19059
 Alpha virt. eigenvalues --    0.19309   0.19874   0.20240   0.20259   0.20920
 Alpha virt. eigenvalues --    0.21359   0.21513   0.21838   0.21991   0.22312
 Alpha virt. eigenvalues --    0.22947   0.23263   0.23374   0.23775   0.24144
 Alpha virt. eigenvalues --    0.24490   0.25762   0.25954   0.26421   0.26574
 Alpha virt. eigenvalues --    0.27085   0.27548   0.28450   0.28555   0.30979
 Alpha virt. eigenvalues --    0.31144   0.31172   0.31302   0.31447   0.31457
 Alpha virt. eigenvalues --    0.31538   0.31575   0.32093   0.32747   0.32911
 Alpha virt. eigenvalues --    0.33288   0.34354   0.35180   0.35698   0.36102
 Alpha virt. eigenvalues --    0.36384   0.37243   0.37569   0.38072   0.38390
 Alpha virt. eigenvalues --    0.38737   0.39075   0.39612   0.39852   0.40355
 Alpha virt. eigenvalues --    0.40532   0.41051   0.41399   0.41555   0.41916
 Alpha virt. eigenvalues --    0.42465   0.42701   0.42728   0.42985   0.43054
 Alpha virt. eigenvalues --    0.43359   0.43452   0.44017   0.44296   0.44298
 Alpha virt. eigenvalues --    0.45185   0.45250   0.45682   0.45719   0.46030
 Alpha virt. eigenvalues --    0.46877   0.47317   0.47653   0.47683   0.48164
 Alpha virt. eigenvalues --    0.48536   0.49031   0.49088   0.49490   0.49506
 Alpha virt. eigenvalues --    0.49605   0.49996   0.50117   0.50450   0.50661
 Alpha virt. eigenvalues --    0.50748   0.50941   0.51603   0.51612   0.51966
 Alpha virt. eigenvalues --    0.52872   0.53034   0.53088   0.53122   0.53649
 Alpha virt. eigenvalues --    0.55059   0.55169   0.55401   0.55877   0.56412
 Alpha virt. eigenvalues --    0.56439   0.56605   0.56844   0.56940   0.57712
 Alpha virt. eigenvalues --    0.57878   0.58020   0.58314   0.58368   0.59136
 Alpha virt. eigenvalues --    0.59212   0.59269   0.59390   0.60142   0.60200
 Alpha virt. eigenvalues --    0.60550   0.61947   0.62341   0.62619   0.63005
 Alpha virt. eigenvalues --    0.63096   0.63357   0.63390   0.63719   0.63794
 Alpha virt. eigenvalues --    0.64008   0.64322   0.64466   0.64767   0.64907
 Alpha virt. eigenvalues --    0.65381   0.65540   0.66221   0.66643   0.67248
 Alpha virt. eigenvalues --    0.68194   0.68789   0.69681   0.69705   0.70087
 Alpha virt. eigenvalues --    0.72421   0.72714   0.73834   0.74923   0.75199
 Alpha virt. eigenvalues --    0.75401   0.76757   0.77045   0.77384   0.77738
 Alpha virt. eigenvalues --    0.77891   0.78195   0.78469   0.79640   0.80466
 Alpha virt. eigenvalues --    0.81039   0.81417   0.81721   0.82150   0.83247
 Alpha virt. eigenvalues --    0.84271   0.85063   0.85398   0.86585   0.88169
 Alpha virt. eigenvalues --    0.88852   0.88925   0.89742   0.89849   0.91156
 Alpha virt. eigenvalues --    0.92278   0.93076   0.93384   0.93533   0.93560
 Alpha virt. eigenvalues --    0.94126   0.94244   0.94309   0.94733   0.94820
 Alpha virt. eigenvalues --    0.95531   0.95686   0.96554   0.96567   0.96712
 Alpha virt. eigenvalues --    0.97561   0.97909   0.99090   0.99210   1.00023
 Alpha virt. eigenvalues --    1.00841   1.02787   1.04218   1.04986   1.07339
 Alpha virt. eigenvalues --    1.09482   1.09620   1.11174   1.12109   1.12821
 Alpha virt. eigenvalues --    1.15475   1.16345   1.16898   1.20852   1.20991
 Alpha virt. eigenvalues --    1.23463   1.27429   1.29098   1.31005   1.33427
 Alpha virt. eigenvalues --    1.34884   1.35274   1.38616   1.51279   1.52112
 Alpha virt. eigenvalues --    1.53251   1.55007   1.56064   1.56717   1.72072
 Alpha virt. eigenvalues --    1.72133   1.73995   1.74118   1.74340   1.74709
 Alpha virt. eigenvalues --    1.75130   1.75725   1.76156   1.76695   1.78574
 Alpha virt. eigenvalues --    1.79250   1.80479   1.80973   1.86802   1.89154
 Alpha virt. eigenvalues --    1.93030   1.93876   2.19647   2.19675   2.19817
 Alpha virt. eigenvalues --    2.19828   2.20055   2.20063   2.20103   2.20187
 Alpha virt. eigenvalues --    2.20252   2.20402   2.20447   2.20578   2.25278
 Alpha virt. eigenvalues --    2.25296   2.26751   2.26795   2.26968   2.27210
 Alpha virt. eigenvalues --    2.27371   2.27428   2.34477   2.34503   2.37092
 Alpha virt. eigenvalues --    2.37384   2.37963   2.38623   2.51417   2.51856
 Alpha virt. eigenvalues --    2.52483   2.52725   2.53026   2.53266   2.54049
 Alpha virt. eigenvalues --    2.54536   2.56761   2.58032   2.61622   2.64610
 Alpha virt. eigenvalues --    2.65884   2.68834   2.70862   2.71839   2.71908
 Alpha virt. eigenvalues --    2.72642   2.74238   2.74807   2.74973   2.75844
 Alpha virt. eigenvalues --    2.77043   2.77870   2.78059   2.78898   2.79853
 Alpha virt. eigenvalues --    2.80182   2.80996   2.81126   2.81473   2.81896
 Alpha virt. eigenvalues --    2.82806   2.83095   2.83313   2.83915   2.84237
 Alpha virt. eigenvalues --    2.84787   2.85027   2.85346   2.85549   2.85612
 Alpha virt. eigenvalues --    2.85668   2.85776   2.86139   2.86531   2.86650
 Alpha virt. eigenvalues --    2.86757   2.88477   2.89022   2.89606   2.89939
 Alpha virt. eigenvalues --    2.90443   2.92331   2.94268   2.94646   2.95105
 Alpha virt. eigenvalues --    2.97947   2.98454   2.99109   3.02473   3.03466
 Alpha virt. eigenvalues --    3.04350   3.05551   3.06576   3.06829   3.07339
 Alpha virt. eigenvalues --    3.08192   3.08947   3.09674   3.12525   3.13220
 Alpha virt. eigenvalues --    3.17207   3.17381   3.17769   3.18693   3.19532
 Alpha virt. eigenvalues --    3.20612   3.21038   3.21927   3.23181   3.24592
 Alpha virt. eigenvalues --    3.25050   3.25292   3.26375   3.26574   3.27278
 Alpha virt. eigenvalues --    3.28528   3.31664   3.35415   4.85144   4.85167
 Alpha virt. eigenvalues --    4.85383   4.87197   4.87231   4.87297   4.98779
 Alpha virt. eigenvalues --    4.98815   4.98993   4.99337   4.99577   4.99820
 Alpha virt. eigenvalues --    5.14701   5.14733   5.14992   5.16277   5.16709
 Alpha virt. eigenvalues --    5.17447   7.60581   7.61286   7.62454   7.62550
 Alpha virt. eigenvalues --    7.63962   7.64227  17.16680  17.17332  17.17949
 Alpha virt. eigenvalues --   17.19035  17.19704  17.19999  17.34544  17.34571
 Alpha virt. eigenvalues --   17.37368  17.37499  17.38652  17.38973  17.40164
 Alpha virt. eigenvalues --   17.43180  17.45159  17.46398  17.46939  17.47474
 Alpha virt. eigenvalues --   23.14076  23.15514  23.17284  23.22713  23.23666
 Alpha virt. eigenvalues --   23.25025  23.28534  23.30669  23.33672  23.34872
 Alpha virt. eigenvalues --   23.35313  23.35446  23.35946  23.36003  23.36137
 Alpha virt. eigenvalues --   23.40674  23.42822  23.46634  23.53849  23.55535
 Alpha virt. eigenvalues --   23.57452  23.65139  23.65903  23.67187  23.74309
 Alpha virt. eigenvalues --   23.74331  23.79463  23.80696  23.82406  23.85493
 Alpha virt. eigenvalues --   49.88620  49.88704  49.89254  49.89528  49.89642
 Alpha virt. eigenvalues --   49.89718 188.73571 188.74457 188.75656 188.75858
 Alpha virt. eigenvalues --  188.77216 188.77504
          Condensed to atoms (all electrons):
 Mulliken charges:
               1
     1  C   -0.367624
     2  C    0.403374
     3  C   -0.159911
     4  C   -0.287174
     5  S    0.490414
     6  O   -0.540986
     7  H    0.195316
     8  C   -0.357894
     9  C    0.377393
    10  C   -0.162578
    11  C   -0.261692
    12  S    0.488886
    13  O   -0.541148
    14  H    0.200993
    15  C   -0.293381
    16  H    0.187818
    17  H    0.187599
    18  H    0.201928
    19  C   -0.290241
    20  H    0.201427
    21  H    0.186971
    22  H    0.187119
    23  C   -0.340550
    24  C    0.331575
    25  C   -0.074405
    26  C   -0.375918
    27  S    0.494759
    28  O   -0.537832
    29  H    0.193006
[...]
 0001952,0.00002810,-0.00000040,0.00000039,-0.00001332,-0.00000886,0.00
 003340,0.00001676,-0.00000235,-0.00002921,0.00004009,-0.00000423,-0.00
 001064,0.00001389,0.00000266,0.00001276,-0.00000101,0.00000089,0.00000
 591,-0.00001164,-0.00000011,0.00004723,-0.00004812,0.00000269,0.000003
 38,0.00000119,-0.00000097,0.00000914,-0.00000389,-0.00000156,-0.000001
 60,-0.00000136,0.00000316,-0.00000240,-0.00000180,-0.00000207,-0.00000
 048,0.00000370,-0.00000020,-0.00004095,0.00001388,-0.00000244,-0.00000
 373,-0.00000336,-0.00000151,0.00000741,0.00000461,0.00000297,0.0000067
 1,0.00000225,-0.00000145,-0.00001827,0.00001764,0.00000033,0.00003039,
 -0.00000849,-0.00000025,-0.00000689,-0.00000581,0.00000041,-0.00000800
 ,0.00000206,-0.00000008,-0.00000224,-0.00000757,-0.00000026,-0.0000072
 1,0.00001075,0.00000055,0.00000051,-0.00000288,-0.00000046,0.00000800,
 -0.00000487,0.00000016,-0.00001098,0.00002364,-0.00000020,-0.00000445,
 0.00000077,0.00000021,0.00001112,0.00001028,0.00000040,-0.00000148,-0.
 00000431,-0.00000013,0.00002011,-0.00002635,0.00000082,0.00000177,0.00
 000013,-0.00000028,0.00000501,-0.00000267,-0.00000078,-0.00000077,-0.0
 0000066,0.00000113,-0.00000096,-0.00000089,-0.00000078,-0.00000011,0.0
 0000156,-0.00000012,-0.00001769,0.00000539,-0.00000074,-0.00000004,-0.
 00000150,-0.00000036,0.00000289,0.00000150,0.00000130,0.00000270,0.000
 00096,-0.00000091,0.00000019,0.00000015,-0.00000024,-0.00027270,-0.000
 06788,0.00009622,0.00015426,-0.00008570,-0.00000501,0.00002892,-0.0000
 5586,-0.00000060,-0.00008030,-0.00003393,0.00003475,0.00002606,0.00000
 608,-0.00004139,-0.00009606,0.00010965,0.00001746,-0.00000663,-0.00000
 351,-0.00000647,0.00083305,-0.00011450,-0.00011717,-0.00033350,0.00249
 933,0.00139694,-0.00064108,0.00033940,0.00004181,0.00017115,-0.0005292
 8,-0.00023424,-0.00025270,0.00034151,-0.00015730,0.00675861,0.00370849
 ,0.00727489,0.00041180,-0.00090503,0.00081716,0.00007559,-0.00002017,-
 0.00001445,-0.00001514,-0.00000255,-0.00000470,-0.00001254,-0.00000460
 ,0.00000701,-0.00000089,0.00000417,-0.00000091,-0.04047969,-0.09098507
 ,-0.08037915,-0.01327461,-0.01011280,-0.02852888,0.04218722,0.09054047
 ,0.00004872,0.00007242,0.00001694,-0.00002855,-0.00000548,0.00000353,0
 .00001724,0.00001832,0.00000553,-0.00007655,-0.00006058,-0.00000597,0.
 00000058,0.00001833,-0.00002019,0.00004534,-0.00004265,0.00000180,0.00
 000940,-0.00001205,-0.00001159,-0.00000073,-0.00001954,0.00000028,-0.0
 0001937,0.00005892,-0.00000210,0.00000738,-0.00002133,0.00000161,-0.00
 000287,0.00000793,0.00000086,-0.00000222,-0.00000476,-0.00000073,0.000
 02617,-0.00006463,0.00001503,0.00000105,0.00000365,-0.00000212,-0.0000
 3250,0.00000267,-0.00000614,0.00000447,0.00000256,0.00000338,0.0000030
 0,0.00000148,-0.00000091,0.00000221,-0.00000279,-0.00000025,-0.0000129
 2,0.00003526,-0.00000770,0.00001238,-0.00000488,-0.00000823,0.00000380
 ,0.00000089,-0.00000115,0.00000095,-0.00000819,0.00000592,0.00000961,-
 0.00000585,0.00000054,-0.00001660,0.00001068,-0.00000040,0.00000356,-0
 .00000058,0.00000098,0.00000150,-0.00000186,0.00000031,0.00000237,0.00
 000229,-0.00000036,0.00000943,-0.00001278,0.00000085,-0.00000029,0.000
 00235,-0.00000102,-0.00000344,0.00000298,0.00000025,0.00000409,-0.0000
 0679,-0.00000029,0.00000293,-0.00000204,0.00000027,-0.00000748,-0.0000
 0611,0.00000055,0.00000139,0.00000154,-0.00000020,-0.00000747,0.000007
 60,0.00000123,-0.00000077,0.00000038,-0.00000037,-0.00000750,0.0000028
 0,-0.00000131,0.00000109,0.00000113,-0.00000009,0.00000080,0.00000078,
 0.00000066,0.00000001,-0.00000154,-0.00000015,0.00000713,-0.00000005,-
 0.00000102,0.00000036,0.00000009,-0.00000053,-0.00000095,-0.00000016,-
 0.00000064,-0.00000124,-0.00000093,0.00000118,-0.00000031,-0.00000016,
 -0.00000032,0.00012446,-0.00001284,0.00003792,-0.00001529,-0.00016263,
 0.00000202,-0.00001307,0.00007285,-0.00000403,0.00006716,-0.00001631,0
 .00003352,0.00004847,0.00000848,-0.00000685,-0.00004681,0.00016009,0.0
 0001191,-0.00000953,0.00000633,-0.00000638,0.00013005,0.00019555,-0.00
 013308,0.00021659,-0.00090581,0.00020372,-0.00098209,-0.00039825,0.000
 03033,0.00018564,0.00040218,0.00009389,0.00014242,0.00018943,-0.000096
 80,-0.00148312,0.00218842,0.00703317,0.00053700,0.00037491,-0.00020900
 ,0.00006206,-0.00000845,-0.00000745,-0.00000377,-0.00000506,-0.0000003
 6,-0.00000544,-0.00000738,0.00000223,-0.00000609,0.00000766,-0.0000015
 5,-0.08383120,-0.07897774,-0.22795314,0.00111755,0.00148627,0.00109005
 ,0.09503704,0.08760251,0.24133239,0.00004948,0.00009073,-0.00000692,-0
 .00002322,-0.00005076,0.00001115,-0.00001818,0.00014296,-0.00000703,-0
 .00010738,-0.00020167,0.00000764,0.00003093,-0.00003361,0.00000601,0.0
 0000609,0.00000352,-0.00000147,0.00001050,-0.00001783,-0.00000325,-0.0
 0003964,-0.00002968,-0.00000142,0.00001561,0.00007048,-0.00000007,-0.0
 0001736,-0.00001972,0.00000039,0.00002616,0.00003465,-0.00000019,-0.00
 000574,-0.00000546,0.00000102,0.00004885,-0.00007250,-0.00000469,0.000
 00379,0.00000157,0.00000078,-0.00000108,-0.00000326,0.00000390,-0.0000
 0070,-0.00000305,0.00000384,0.00000015,-0.00000224,-0.00000532,0.00000
 125,0.00000343,0.00000019,-0.00004049,0.00001518,0.00000280,0.00000145
 ,-0.00000505,0.00000094,0.00000677,0.00000280,0.00000053,0.00000769,0.
 00000424,-0.00000162,-0.00001152,0.00002248,-0.00000021,0.00002299,-0.
 00001185,0.00000001,-0.00001078,0.00000758,-0.00000043,-0.00001408,-0.
 00002578,-0.00000079,0.00000227,-0.00000963,0.00000009,-0.00000697,0.0
 0001010,-0.00000044,0.00000049,-0.00000228,0.00000063,0.00000308,-0.00
 000757,-0.00000004,-0.00000820,0.00002455,0.00000013,-0.00000481,-0.00
 000038,-0.00000012,0.00001177,0.00001119,-0.00000025,-0.00000209,-0.00
 000371,0.00000010,0.00002030,-0.00002713,-0.00000046,0.00000180,0.0000
 0015,0.00000015,0.00000534,-0.00000252,0.00000069,-0.00000090,-0.00000
 096,0.00000080,-0.00000076,-0.00000077,-0.00000109,-0.00000011,0.00000
 156,0.00000008,-0.00001789,0.00000542,0.00000039,0.00000008,-0.0000015
 3,0.00000018,0.00000278,0.00000113,0.00000097,0.00000290,0.00000140,-0
 .00000118,0.00000016,0.00000013,0.00000014,0.00053686,0.00016999,0.000
 19777,-0.00010922,-0.00033543,-0.00001667,-0.00006585,0.00012621,0.000
 04189,0.00000738,-0.00007693,-0.00011210,0.00046312,0.00012460,0.00010
 696,-0.00016158,0.00031442,-0.00000213,-0.00003225,0.00002776,0.000022
 89,-0.00105683,0.00037518,-0.00022352,0.00276150,-0.00686946,0.0010657
 1,0.00050458,0.00052357,-0.00026182,-0.00011888,0.00057536,-0.00004286
 ,0.00011731,0.00022880,-0.00022642,-0.03546997,-0.00562652,0.02597434,
 0.00015483,0.00045769,0.00041279,0.00015258,-0.00003376,-0.00001922,-0
 .00002777,-0.00001317,-0.00000512,-0.00001536,-0.00001566,0.00000312,-
 0.00000794,0.00001626,0.00000052,-0.08722756,-0.03681400,0.08069923,0.
 00279525,-0.00001197,-0.00135795,0.00867460,0.00475871,-0.01127324,0.1
 0823014,-0.00007810,-0.00002406,0.00000867,0.00009799,0.00001744,-0.00
 001378,0.00000065,-0.00008567,-0.00000712,0.00003128,0.00019488,-0.000
 02730,-0.00001939,0.00000441,-0.00001310,-0.00001952,0.00002810,0.0000
 0040,0.00000039,-0.00001332,0.00000886,0.00003340,0.00001675,0.0000023
 5,-0.00002921,0.00004009,0.00000423,-0.00001064,0.00001389,-0.00000266
 ,0.00001276,-0.00000101,-0.00000089,0.00000591,-0.00001164,0.00000011,
 0.00004723,-0.00004812,-0.00000269,0.00000338,0.00000119,0.00000097,0.
 00000914,-0.00000389,0.00000156,-0.00000240,-0.00000180,0.00000207,-0.
 00000160,-0.00000136,-0.00000316,-0.00000048,0.00000370,0.00000020,-0.
 00004094,0.00001388,0.00000244,-0.00000373,-0.00000336,0.00000151,0.00
 000671,0.00000225,0.00000145,0.00000741,0.00000461,-0.00000297,-0.0000
 1827,0.00001764,-0.00000033,0.00003039,-0.00000849,0.00000026,-0.00000
 689,-0.00000581,-0.00000041,-0.00000800,0.00000206,0.00000008,-0.00000
 224,-0.00000757,0.00000026,-0.00000721,0.00001075,-0.00000055,0.000000
 51,-0.00000288,0.00000046,0.00000800,-0.00000487,-0.00000017,-0.000010
 98,0.00002364,0.00000020,-0.00000445,0.00000077,-0.00000021,0.00001112
 ,0.00001028,-0.00000040,-0.00000148,-0.00000431,0.00000013,0.00002010,
 -0.00002635,-0.00000082,0.00000177,0.00000013,0.00000028,0.00000501,-0
 .00000267,0.00000078,-0.00000096,-0.00000089,0.00000078,-0.00000077,-0
 .00000066,-0.00000113,-0.00000011,0.00000156,0.00000012,-0.00001769,0.
 00000539,0.00000074,-0.00000004,-0.00000150,0.00000036,0.00000270,0.00
 000096,0.00000091,0.00000289,0.00000150,-0.00000130,0.00000019,0.00000
 015,0.00000024,-0.00027272,-0.00006788,-0.00009620,0.00015427,-0.00008
 571,0.00000501,0.00002892,-0.00005587,0.00000060,-0.00008031,-0.000033
 93,-0.00003474,0.00002607,0.00000608,0.00004139,-0.00009606,0.00010966
 ,-0.00001746,-0.00000663,-0.00000351,0.00000647,0.00083311,-0.00011449
 ,0.00011711,-0.00033369,0.00249946,-0.00139693,-0.00064112,0.00033944,
 -0.00004173,0.00017118,-0.00052931,0.00023420,-0.00025270,0.00034154,0
 .00015732,0.00675783,0.00370869,-0.00727565,0.00041171,-0.00090489,-0.
 00081723,0.00007560,-0.00002017,0.00001444,-0.00001254,-0.00000460,-0.
 00000700,-0.00001514,-0.00000255,0.00000470,-0.00000089,0.00000417,0.0
 0000091,-0.04047409,-0.09099173,0.08038959,-0.01327130,-0.01011381,0.0
 2852986,0.00475685,0.00521820,-0.01217015,0.04218118,0.09054760,-0.000
 04874,-0.00007242,0.00001694,0.00002856,0.00000549,0.00000353,-0.00001
 724,-0.00001835,0.00000553,0.00007656,0.00006062,-0.00000597,-0.000000
 59,-0.00001832,-0.00002021,-0.00004534,0.00004265,0.00000180,-0.000009
 40,0.00001205,-0.00001159,0.00000074,0.00001955,0.00000028,0.00001936,
 -0.00005892,-0.00000210,-0.00000738,0.00002134,0.00000161,0.00000286,-
 0.00000793,0.00000086,0.00000222,0.00000476,-0.00000073,-0.00002617,0.
 00006463,0.00001504,-0.00000105,-0.00000365,-0.00000212,0.00003250,-0.
 00000267,-0.00000614,-0.00000300,-0.00000148,-0.00000091,-0.00000447,-
 0.00000256,0.00000338,-0.00000221,0.00000279,-0.00000025,0.00001292,-0
 .00003525,-0.00000770,-0.00001238,0.00000488,-0.00000823,-0.00000095,0
 .00000819,0.00000592,-0.00000380,-0.00000089,-0.00000115,-0.00000961,0
 .00000584,0.00000054,0.00001660,-0.00001068,-0.00000040,-0.00000356,0.
 00000058,0.00000098,-0.00000150,0.00000187,0.00000031,-0.00000237,-0.0
 0000229,-0.00000036,-0.00000943,0.00001278,0.00000085,0.00000029,-0.00
 000235,-0.00000102,0.00000344,-0.00000298,0.00000025,-0.00000409,0.000
 00679,-0.00000030,-0.00000293,0.00000204,0.00000027,0.00000748,0.00000
 611,0.00000055,-0.00000139,-0.00000154,-0.00000020,0.00000747,-0.00000
 759,0.00000123,0.00000077,-0.00000038,-0.00000037,0.00000750,-0.000002
 80,-0.00000131,-0.00000080,-0.00000078,0.00000066,-0.00000109,-0.00000
 113,-0.00000009,-0.00000001,0.00000154,-0.00000015,-0.00000713,0.00000
 005,-0.00000102,-0.00000036,-0.00000009,-0.00000053,0.00000124,0.00000
 093,0.00000118,0.00000095,0.00000016,-0.00000064,0.00000031,0.00000016
 ,-0.00000032,-0.00012453,0.00001281,0.00003791,0.00001531,0.00016267,0
 .00000201,0.00001307,-0.00007287,-0.00000403,-0.00006715,0.00001633,0.
 00003353,-0.00004852,-0.00000849,-0.00000685,0.00004683,-0.00016012,0.
 00001190,0.00000953,-0.00000633,-0.00000638,-0.00012989,-0.00019560,-0
 .00013305,-0.00021690,0.00090662,0.00020364,0.00098193,0.00039817,0.00
 003037,-0.00018559,-0.00040227,0.00009392,-0.00014244,-0.00018944,-0.0
 0009678,0.00148815,-0.00218779,0.00702954,-0.00053699,-0.00037497,-0.0
 0020914,-0.00006208,0.00000846,-0.00000744,0.00000544,0.00000738,0.000
 00223,0.00000377,0.00000506,-0.00000036,0.00000609,-0.00000766,-0.0000
 0155,0.08381373,0.07898773,-0.22796567,-0.00111831,-0.00148677,0.00109
 150,0.01126999,0.01217070,-0.02143348,-0.09502024,-0.08761369,0.241347
 21,-0.00001805,0.00001278,0.,0.00000760,0.00001349,0.,-0.00000850,-0.0
 0000872,0.,-0.00006890,-0.00001894,0.,0.00000302,-0.00002150,0.,0.0000
 0007,-0.00000638,0.,-0.00000629,0.00001426,0.,0.00000329,-0.00000455,0
 .,-0.00000225,-0.00000070,0.,0.00000194,-0.00000068,0.,-0.00000023,-0.
 00000153,0.,-0.00000114,0.00000100,0.,-0.00000879,0.00000190,0.,-0.000
 00066,0.00000017,0.,-0.00000053,0.00000103,0.,0.00000003,0.00000105,-0
 .00000143,0.00000003,0.00000105,0.00000143,-0.00000039,-0.00000144,0.,
 0.00000656,-0.00000212,0.,0.00000090,0.00000034,0.,-0.00000130,-0.0000
 0057,-0.00000065,-0.00000130,-0.00000057,0.00000065,0.00000310,-0.0000
 0338,0.,-0.00000552,0.00000217,0.,0.00000165,0.00000005,0.,0.00000120,
 0.00000092,0.,0.00000027,0.00000139,0.,0.00000121,-0.00000226,0.,-0.00
 000019,0.00000077,0.,-0.00000119,0.00000129,0.,0.00000204,-0.00000503,
 0.,0.00000104,-0.00000009,0.,-0.00000251,-0.00000254,0.,0.00000043,0.0
 0000091,0.,-0.00000466,0.00000560,0.,-0.00000042,0.00000004,0.,-0.0000
 0076,0.00000066,0.,0.00000016,0.00000019,-0.00000031,0.00000016,0.0000
 0019,0.00000031,0.00000002,-0.00000039,0.,0.00000416,-0.00000105,0.,0.
 00000007,0.00000030,0.,-0.00000063,-0.00000030,-0.00000032,-0.00000063
 ,-0.00000030,0.00000032,-0.00000007,-0.00000005,0.,-0.00616886,0.00133
 250,0.00000016,-0.00162819,0.00291746,0.00000026,0.01086396,0.01695599
 ,-0.00000021,-0.09086078,-0.10695468,0.00000204,-0.00472336,-0.0206213
 7,-0.00000003,0.00088472,0.00070353,0.00000002,0.00076362,-0.00103346,
 -0.00000017,0.00113710,-0.00105325,0.00000004,-0.00006791,0.00055749,0
 .,-0.00006007,0.00002746,0.00000001,0.00024362,-0.00011723,0.,-0.00036
 670,-0.00023231,0.00000002,-0.00046137,-0.00033204,0.00000002,-0.00001
 171,0.00000222,0.,0.00012068,-0.00012906,-0.00000002,-0.00000122,0.000
 00253,0.00000418,-0.00000122,0.00000254,-0.00000419,-0.00001292,0.0000
 0703,0.,0.00005174,-0.00018985,-0.00000001,0.00000532,0.00000873,0.,-0
 .00005573,0.00000663,-0.00000401,-0.00005572,0.00000663,0.00000401,0.0
 9050097,-0.00000634,-0.00000531,0.,0.00000540,0.00000303,0.,0.00000942
 ,-0.00001105,0.,0.00000373,0.00001075,0.,-0.00000282,0.00000320,0.,-0.
 00000328,0.00000175,0.,0.00000097,0.00000023,0.,0.00000432,0.00000076,
 0.,-0.00000358,-0.00000341,0.,0.00000198,0.00000171,0.,-0.00000206,-0.
 00000325,0.,0.00000077,0.00000045,0.,-0.00000330,0.00000371,0.,-0.0000
 0033,0.00000009,0.,0.00000314,0.00000044,0.,-0.00000008,0.00000045,-0.
 00000123,-0.00000008,0.00000045,0.00000123,-0.00000031,-0.00000053,0.,
 0.00000312,-0.00000057,0.,0.00000010,0.00000016,0.,-0.00000048,-0.0000
 0027,-0.00000027,-0.00000048,-0.00000027,0.00000027,0.00000138,-0.0000
 0234,0.,-0.00000281,0.00000187,0.,0.00000132,-0.00000102,0.,0.00000114
 ,0.00000250,0.,-0.00000014,0.00000096,0.,0.00000107,-0.00000169,0.,-0.
 00000006,0.00000037,0.,-0.00000033,0.00000095,0.,0.00000088,-0.0000025
 5,0.,0.00000064,-0.00000009,0.,-0.00000159,-0.00000147,0.,0.00000033,0
 .00000042,0.,-0.00000230,0.00000282,0.,-0.00000022,0.00000004,0.,-0.00
 000080,0.00000047,0.,0.00000013,0.00000015,-0.00000016,0.00000013,0.00
 000015,0.00000016,0.,-0.00000026,0.,0.00000208,-0.00000045,0.,0.000000
 02,0.00000012,0.,-0.00000032,-0.00000014,-0.00000017,-0.00000032,-0.00
 000014,0.00000017,-0.00000005,-0.00000002,0.,0.00111925,0.00117369,-0.
 00000002,0.00371623,-0.00155996,-0.00000011,-0.01421959,-0.01051279,0.
 00000036,-0.10317422,-0.32406985,0.00000242,0.00505746,0.00261662,-0.0
 0000018,-0.00068112,-0.00104266,-0.00000002,0.00048957,0.00065938,0.,-
 0.00014113,0.00016136,0.,-0.00012464,-0.00001365,0.,-0.00000710,0.0000
 4037,0.,-0.00001419,0.00001788,0.,0.00014176,0.00008497,0.,-0.00000422
 ,-0.00003286,0.,-0.00000439,0.00000360,0.,-0.00044612,0.00010668,0.000
 00006,0.00003953,0.00003289,0.00001458,0.00003953,0.00003289,-0.000014
 59,0.00004272,-0.00001599,0.,0.00000459,0.00000964,0.,0.00000030,-0.00
 000253,0.,0.00000089,-0.00000221,0.00000064,0.00000089,-0.00000221,-0.
 00000064,0.10815402,0.33231158,0.,0.,-0.00000991,0.,0.,-0.00006139,0.,
 0.,0.00002484,0.,0.,-0.00018871,0.,0.,-0.00002544,0.,0.,-0.00000262,0.
 ,0.,0.00004055,0.,0.,0.00002805,0.,0.,0.00000262,0.,0.,-0.00000416,0.,
 0.,0.00000031,0.,0.,0.00000315,0.,0.,0.00000046,0.,0.,0.00000101,0.,0.
 ,0.00000932,0.00000015,-0.00000103,-0.00000135,-0.00000015,0.00000103,
 -0.00000135,0.,0.,0.00000036,0.,0.,0.00000002,0.,0.,0.00000135,-0.0000
 0124,-0.00000090,-0.00000072,0.00000124,0.00000090,-0.00000072,0.,0.,-
 0.00000034,0.,0.,-0.00000022,0.,0.,-0.00000049,0.,0.,-0.00000164,0.,0.
 ,-0.00000011,0.,0.,-0.00000096,0.,0.,0.00000115,0.,0.,0.,0.,0.,0.00000
 029,0.,0.,-0.00000030,0.,0.,-0.00000057,0.,0.,0.00000026,0.,0.,-0.0000
 0089,0.,0.,0.00000035,0.,0.,0.00000143,-0.00000014,-0.00000024,-0.0000
 0032,0.00000014,0.00000024,-0.00000032,0.,0.,0.00000022,0.,0.,0.000000
 83,0.,0.,0.00000035,-0.00000013,-0.00000027,-0.00000022,0.00000013,0.0
 0000027,-0.00000022,0.,0.,0.00000032,0.00000016,-0.00000015,-0.0020834
 3,0.00000027,-0.00000020,0.00660837,-0.00000033,-0.00000048,0.00233583
 ,0.00000197,0.00000241,-0.02213655,0.00000020,0.00000083,-0.00125463,-
 0.00000005,-0.00000003,0.00062978,-0.00000014,0.00000004,-0.00432790,0
 .00000006,0.00000003,0.00229826,-0.00000004,-0.00000001,-0.00037892,0.
 ,0.00000001,0.00020652,0.00000001,0.,-0.00001780,0.00000001,0.,0.00044
 289,0.00000002,0.,0.00002892,0.,0.,0.00000400,-0.00000002,0.00000002,-
 0.00002633,-0.00001980,0.00004048,-0.00000948,0.00001981,-0.00004047,-
 0.00000949,0.,0.,0.00001626,0.,0.00000001,-0.00005092,0.,0.,0.00001328
 ,-0.00002949,-0.00000775,-0.00000695,0.00002949,0.00000775,-0.00000695
 ,-0.00000212,-0.00000249,0.01791095\\-0.00000615,-0.00001544,0.0000005
 6,0.00000697,0.00001369,-0.00000049,-0.00001279,-0.00000121,-0.0000005
 4,0.00000423,-0.00001087,0.00000121,-0.00000574,0.00001119,-0.00000125
 ,-0.00000499,-0.00000627,0.00000033,0.00000018,-0.00000108,-0.00000002
 ,0.00000995,0.00001107,-0.00000013,-0.00001047,-0.00001817,0.00000014,
 0.00000898,0.00000750,0.00000027,-0.00000646,0.00000324,-0.00000069,0.
 00001147,-0.00000728,0.00000067,0.00000408,0.00001260,-0.00000004,-0.0
 0000090,0.00000037,0.00000005,0.00000560,0.00000096,-0.00000022,0.0000
 0002,-0.00000016,-0.00000039,0.00000012,-0.00000009,0.00000035,-0.0000
 0038,0.00000078,0.,-0.00000428,-0.00000159,0.00000022,0.00000008,-0.00
 000019,-0.00000001,0.00000015,-0.00000029,0.00000007,0.00000015,-0.000
 00028,-0.00000016,-0.00001046,-0.00000850,-0.00000032,0.00001318,0.000
 01377,-0.00000010,-0.00000825,-0.00001217,0.00000033,-0.00000698,-0.00
 000277,-0.00000055,0.00000244,0.00000603,0.00000042,-0.00000281,-0.000
 00925,0.00000036,0.00000224,0.00000087,0.00000007,0.00000696,0.0000126
 2,-0.00000015,-0.00000172,-0.00000495,0.00000020,0.00000163,-0.0000005
 8,-0.00000005,-0.00000171,0.00000208,-0.00000009,0.00000412,-0.0000060
 6,0.00000010,0.00000074,0.00000085,-0.00000021,0.00000013,0.00000005,0
 .00000005,0.00000161,0.00000042,-0.00000012,0.00000064,0.00000009,-0.0
 0000016,0.00000066,0.00000021,0.00000011,0.00000110,-0.00000009,0.,-0.
 00000002,-0.00000107,0.00000018,0.00000046,-0.00000060,0.,0.00000011,-
 0.00000038,-0.00000006,0.00000013,-0.00000038,-0.00000002,0.00000071,-
 0.00000047,-0.00000002,-0.00000927,-0.00001410,-0.00000071,0.00000357,
 0.00000549,0.00000004,-0.00000208,0.00000009,0.00000049,0.00000161,-0.
 00000239,-0.00000064,-0.00000340,0.00000754,0.00000062,-0.00000114,-0.
 00000026,0.00000017,0.00000004,-0.00000012,0.00000009,0.00000914,0.000
 00582,-0.00000080,-0.00001054,-0.00001194,0.00000058,0.00000789,0.0000
 0453,0.00000066,0.00000210,0.00000808,-0.00000128,0.00000229,-0.000005
 03,0.00000120,0.00000325,0.00001129,-0.00000026,-0.00000188,0.00000080
 ,0.00000002,0.00000018,0.00000123,-0.00000008,-0.00000024,0.00000039,0
 .00000005,-0.00000022,0.00000052,-0.00000011,-0.00000072,0.00000061,0.
 00000001,-0.00000339,-0.00000112,0.00000024,-0.00000071,0.00000015,0.,
 -0.00000027,-0.00000020,0.00000004,-0.00000028,-0.00000015,-0.00000013
 ,-0.00000066,0.00000057,-0.00000010\\\@


 IN THE WOODS WE RETURN TO REASON AND FAITH.

                                 -- EMERSON
 Job cpu time:       0 days  6 hours 13 minutes 59.8 seconds.
 Elapsed time:       0 days  0 hours 46 minutes 47.5 seconds.
 File lengths (MBytes):  RWF=   3751 Int=      0 D2E=      0 Chk=     39 Scr=      1
 Normal termination of Gaussian 16 at Fri Jan 10 12:58:22 2020.
