 Entering Gaussian System, Link 0=g16
 Input=OBT_opt_freq.gjf
 Output=OBT_opt_freq.log
 Initial command:
 /apps/gaussian/g16-a03/l1.exe "/tmp/pbs.943351.pbs/Gau-18059.inp" -scrdir="/tmp/pbs.943351.pbs/"
 Entering Link 1 = /apps/gaussian/g16-a03/l1.exe PID=     18061.
  
 Copyright (c) 1988,1990,1992,1993,1995,1998,2003,2009,2016,
            Gaussian, Inc.  All Rights Reserved.
  
 This is part of the Gaussian(R) 16 program.  It is based on
 the Gaussian(R) 09 system (copyright 2009, Gaussian, Inc.),
 the Gaussian(R) 03 system (copyright 2003, Gaussian, Inc.),
 the Gaussian(R) 98 system (copyright 1998, Gaussian, Inc.),
 the Gaussian(R) 94 system (copyright 1995, Gaussian, Inc.),
 the Gaussian 92(TM) system (copyright 1992, Gaussian, Inc.),
 the Gaussian 90(TM) system (copyright 1990, Gaussian, Inc.),
 the Gaussian 88(TM) system (copyright 1988, Gaussian, Inc.),
 the Gaussian 86(TM) system (copyright 1986, Carnegie Mellon
 University), and the Gaussian 82(TM) system (copyright 1983,
 Carnegie Mellon University). Gaussian is a federally registered
 trademark of Gaussian, Inc.
  
 This software contains proprietary and confidential information,
 including trade secrets, belonging to Gaussian, Inc.
  
 This software is provided under written license and may be
 used, copied, transmitted, or stored only in accord with that
 written license.
  
 The following legend is applicable only to US Government
 contracts under FAR:
  
                    RESTRICTED RIGHTS LEGEND
  
 Use, reproduction and disclosure by the US Government is
 subject to restrictions as set forth in subparagraphs (a)
 and (c) of the Commercial Computer Software - Restricted
 Rights clause in FAR 52.227-19.
  
 Gaussian, Inc.
 340 Quinnipiac St., Bldg. 40, Wallingford CT 06492
  
  
 ---------------------------------------------------------------
 Warning -- This program may not be used in any manner that
 competes with the business of Gaussian, Inc. or will provide
 assistance to any competitor of Gaussian, Inc.  The licensee
 of this program is prohibited from giving any competitor of
 Gaussian, Inc. access to this program.  By using this program,
 the user acknowledges that Gaussian, Inc. is engaged in the
 business of creating and licensing software in the field of
 computational chemistry and represents and warrants to the
 licensee that it is not a competitor of Gaussian, Inc. and that
 it will not use this program in any manner prohibited above.
 ---------------------------------------------------------------
  

 Cite this work as:
 Gaussian 16, Revision A.03,
 M. J. Frisch, G. W. Trucks, H. B. Schlegel, G. E. Scuseria, 
 M. A. Robb, J. R. Cheeseman, G. Scalmani, V. Barone, 
 G. A. Petersson, H. Nakatsuji, X. Li, M. Caricato, A. V. Marenich, 
 J. Bloino, B. G. Janesko, R. Gomperts, B. Mennucci, H. P. Hratchian, 
 J. V. Ortiz, A. F. Izmaylov, J. L. Sonnenberg, D. Williams-Young, 
 F. Ding, F. Lipparini, F. Egidi, J. Goings, B. Peng, A. Petrone, 
 T. Henderson, D. Ranasinghe, V. G. Zakrzewski, J. Gao, N. Rega, 
 G. Zheng, W. Liang, M. Hada, M. Ehara, K. Toyota, R. Fukuda, 
 J. Hasegawa, M. Ishida, T. Nakajima, Y. Honda, O. Kitao, H. Nakai, 
 T. Vreven, K. Throssell, J. A. Montgomery, Jr., J. E. Peralta, 
 F. Ogliaro, M. J. Bearpark, J. J. Heyd, E. N. Brothers, K. N. Kudin, 
 V. N. Staroverov, T. A. Keith, R. Kobayashi, J. Normand, 
 K. Raghavachari, A. P. Rendell, J. C. Burant, S. S. Iyengar, 
 J. Tomasi, M. Cossi, J. M. Millam, M. Klene, C. Adamo, R. Cammi, 
 J. W. Ochterski, R. L. Martin, K. Morokuma, O. Farkas, 
 J. B. Foresman, and D. J. Fox, Gaussian, Inc., Wallingford CT, 2016.
 
 ******************************************
 Gaussian 16:  ES64L-G16RevA.03 25-Dec-2016
                 9-Jan-2020 
 ******************************************
 %mem=10GB
 %nprocshared=8
 Will use up to    8 processors via shared memory.
 ------------------------------
 #p opt freq=Raman b3lyp/6-311g
 ------------------------------
 1/18=20,19=15,26=3,38=1/1,3;
 2/9=110,12=2,17=6,18=5,40=1/2;
 3/5=4,6=6,11=2,25=1,30=1,71=1,74=-5/1,2,3;
 4//1;
 5/5=2,38=5/2;
 6/7=2,8=2,9=2,10=2,28=1/1;
 7//1,2,3,16;
 1/18=20,19=15,26=3/3(2);
 2/9=110/2;
 99//99;
 2/9=110/2;
 3/5=4,6=6,11=2,25=1,30=1,71=1,74=-5/1,2,3;
 4/5=5,16=3,69=1/1;
 5/5=2,38=5/2;
 7//1,2,3,16;
 1/18=20,19=15,26=3/3(-5);
 2/9=110/2;
 6/7=2,8=2,9=2,10=2,19=2,28=1/1;
 99/9=1/99;
 Leave Link    1 at Thu Jan  9 11:38:30 2020, MaxMem=  1342177280 cpu:               0.2 elap:               0.0
 (Enter /apps/gaussian/g16-a03/l101.exe)
 ----------------
 OBT_opt_freq.gjf
 ----------------
 Symbolic Z-matrix:
 Charge =  0 Multiplicity = 1
 C                     9.467     8.465     4.892 
 C                     9.217     9.807     4.865 
 C                     9.768     10.509    5.974 
 C                     10.438    9.705     6.849 
 S                     10.584    8.072     6.199 
 O                     8.599     10.431    3.817 
 H                     9.656     11.565    6.114 
 C                     8.854     7.439     3.921 
 C                     9.103     6.098     3.947 
 C                     8.553     5.395     2.838 
 C                     7.883     6.199     1.963 
 S                     7.737     7.832     2.614 
 O                     9.785     5.574     5.01 
 H                     8.664     4.34      2.698 
 C                     8.907     11.007    2.615 
 H                     9.387     10.255    2.024 
 H                     9.599     11.798    2.817 
 H                     8.066     11.398    2.082 
 C                     9.61      5.351     6.347 
 H                     10.445    4.889     6.832 
 H                     9.415     6.3       6.799 
 H                     8.749     4.724     6.448 
 H                     7.502     5.885     1.013 
 H                     10.818    10.02     7.798 
 
 ITRead=  0  0  0  0  0  0  0  0  0  0  0  0  0  0  0  0  0  0  0  0
 ITRead=  0  0  0  0
 MicOpt= -1 -1 -1 -1 -1 -1 -1 -1 -1 -1 -1 -1 -1 -1 -1 -1 -1 -1 -1 -1
 MicOpt= -1 -1 -1 -1
 NAtoms=     24 NQM=       24 NQMF=       0 NMMI=      0 NMMIF=      0
                NMic=       0 NMicF=      0.
                    Isotopes and Nuclear Properties:
 (Nuclear quadrupole moments (NQMom) in fm**2, nuclear magnetic moments (NMagM)
  in nuclear magnetons)

  Atom         1           2           3           4           5           6           7           8           9          10
 IAtWgt=          12          12          12          12          32          16           1          12          12          12
 AtmWgt=  12.0000000  12.0000000  12.0000000  12.0000000  31.9720718  15.9949146   1.0078250  12.0000000  12.0000000  12.0000000
 NucSpn=           0           0           0           0           0           0           1           0           0           0
 AtZEff=  -0.0000000  -0.0000000  -0.0000000  -0.0000000  -0.0000000  -0.0000000  -0.0000000  -0.0000000  -0.0000000  -0.0000000
 NQMom=    0.0000000   0.0000000   0.0000000   0.0000000   0.0000000   0.0000000   0.0000000   0.0000000   0.0000000   0.0000000
 NMagM=    0.0000000   0.0000000   0.0000000   0.0000000   0.0000000   0.0000000   2.7928460   0.0000000   0.0000000   0.0000000
 AtZNuc=   6.0000000   6.0000000   6.0000000   6.0000000  16.0000000   8.0000000   1.0000000   6.0000000   6.0000000   6.0000000

  Atom        11          12          13          14          15          16          17          18          19          20
 IAtWgt=          12          32          16           1          12           1           1           1          12           1
 AtmWgt=  12.0000000  31.9720718  15.9949146   1.0078250  12.0000000   1.0078250   1.0078250   1.0078250  12.0000000   1.0078250
 NucSpn=           0           0           0           1           0           1           1           1           0           1
 AtZEff=  -0.0000000  -0.0000000  -0.0000000  -0.0000000  -0.0000000  -0.0000000  -0.0000000  -0.0000000  -0.0000000  -0.0000000
 NQMom=    0.0000000   0.0000000   0.0000000   0.0000000   0.0000000   0.0000000   0.0000000   0.0000000   0.0000000   0.0000000
 NMagM=    0.0000000   0.0000000   0.0000000   2.7928460   0.0000000   2.7928460   2.7928460   2.7928460   0.0000000   2.7928460
 AtZNuc=   6.0000000  16.0000000   8.0000000   1.0000000   6.0000000   1.0000000   1.0000000   1.0000000   6.0000000   1.0000000

  Atom        21          22          23          24
 IAtWgt=           1           1           1           1
 AtmWgt=   1.0078250   1.0078250   1.0078250   1.0078250
 NucSpn=           1           1           1           1
 AtZEff=  -0.0000000  -0.0000000  -0.0000000  -0.0000000
 NQMom=    0.0000000   0.0000000   0.0000000   0.0000000
 NMagM=    2.7928460   2.7928460   2.7928460   2.7928460
 AtZNuc=   1.0000000   1.0000000   1.0000000   1.0000000
 Leave Link  101 at Thu Jan  9 11:38:33 2020, MaxMem=  1342177280 cpu:               2.1 elap:               0.3
 (Enter /apps/gaussian/g16-a03/l103.exe)

 GradGradGradGradGradGradGradGradGradGradGradGradGradGradGradGradGradGrad
 Berny optimization.
 Initialization pass.
                           ----------------------------
                           !    Initial Parameters    !
                           ! (Angstroms and Degrees)  !
 --------------------------                            --------------------------
 ! Name  Definition              Value          Derivative Info.                !
 --------------------------------------------------------------------------------
 ! R1    R(1,2)                  1.3654         estimate D2E/DX2                !
 ! R2    R(1,5)                  1.7636         estimate D2E/DX2                !
 ! R3    R(1,8)                  1.5399         estimate D2E/DX2                !
 ! R4    R(2,3)                  1.4235         estimate D2E/DX2                !
 ! R5    R(2,6)                  1.3673         estimate D2E/DX2                !
 ! R6    R(3,4)                  1.3642         estimate D2E/DX2                !
 ! R7    R(3,7)                  1.0711         estimate D2E/DX2                !
 ! R8    R(4,5)                  1.7637         estimate D2E/DX2                !
 ! R9    R(4,24)                 1.0697         estimate D2E/DX2                !
 ! R10   R(6,15)                 1.368          estimate D2E/DX2                !
 ! R11   R(8,9)                  1.3642         estimate D2E/DX2                !
 ! R12   R(8,12)                 1.7636         estimate D2E/DX2                !
 ! R13   R(9,10)                 1.4236         estimate D2E/DX2                !
 ! R14   R(9,13)                 1.3674         estimate D2E/DX2                !
 ! R15   R(10,11)                1.3642         estimate D2E/DX2                !
 ! R16   R(10,14)                1.07           estimate D2E/DX2                !
 ! R17   R(11,12)                1.764          estimate D2E/DX2                !
 ! R18   R(11,23)                1.0706         estimate D2E/DX2                !
 ! R19   R(13,19)                1.3667         estimate D2E/DX2                !
 ! R20   R(15,16)                1.0701         estimate D2E/DX2                !
 ! R21   R(15,17)                1.0702         estimate D2E/DX2                !
 ! R22   R(15,18)                1.0697         estimate D2E/DX2                !
 ! R23   R(19,20)                1.0705         estimate D2E/DX2                !
 ! R24   R(19,21)                1.0691         estimate D2E/DX2                !
 ! R25   R(19,22)                1.0699         estimate D2E/DX2                !
 ! A1    A(2,1,5)              110.4658         estimate D2E/DX2                !
 ! A2    A(2,1,8)              124.7169         estimate D2E/DX2                !
 ! A3    A(5,1,8)              124.8167         estimate D2E/DX2                !
 ! A4    A(1,2,3)              113.4808         estimate D2E/DX2                !
 ! A5    A(1,2,6)              123.1252         estimate D2E/DX2                !
 ! A6    A(3,2,6)              123.1628         estimate D2E/DX2                !
 ! A7    A(2,3,4)              113.5265         estimate D2E/DX2                !
 ! A8    A(2,3,7)              123.1995         estimate D2E/DX2                !
 ! A9    A(4,3,7)              123.2694         estimate D2E/DX2                !
 ! A10   A(3,4,5)              110.4855         estimate D2E/DX2                !
 ! A11   A(3,4,24)             124.7482         estimate D2E/DX2                !
 ! A12   A(5,4,24)             124.7659         estimate D2E/DX2                !
 ! A13   A(1,5,4)               90.8234         estimate D2E/DX2                !
 ! A14   A(2,6,15)             139.8037         estimate D2E/DX2                !
 ! A15   A(1,8,9)              124.77           estimate D2E/DX2                !
 ! A16   A(1,8,12)             124.8167         estimate D2E/DX2                !
 ! A17   A(9,8,12)             110.4128         estimate D2E/DX2                !
 ! A18   A(8,9,10)             113.5825         estimate D2E/DX2                !
 ! A19   A(8,9,13)             118.8533         estimate D2E/DX2                !
 ! A20   A(10,9,13)            127.5227         estimate D2E/DX2                !
 ! A21   A(9,10,11)            113.4772         estimate D2E/DX2                !
 ! A22   A(9,10,14)            123.2806         estimate D2E/DX2                !
 ! A23   A(11,10,14)           123.2385         estimate D2E/DX2                !
 ! A24   A(10,11,12)           110.4588         estimate D2E/DX2                !
 ! A25   A(10,11,23)           124.8251         estimate D2E/DX2                !
 ! A26   A(12,11,23)           124.7157         estimate D2E/DX2                !
 ! A27   A(8,12,11)             90.8473         estimate D2E/DX2                !
 ! A28   A(9,13,19)            139.391          estimate D2E/DX2                !
 ! A29   A(6,15,16)            106.8794         estimate D2E/DX2                !
 ! A30   A(6,15,17)            106.9141         estimate D2E/DX2                !
 ! A31   A(6,15,18)            114.5005         estimate D2E/DX2                !
 ! A32   A(16,15,17)           109.4871         estimate D2E/DX2                !
 ! A33   A(16,15,18)           109.5316         estimate D2E/DX2                !
 ! A34   A(17,15,18)           109.4053         estimate D2E/DX2                !
 ! A35   A(13,19,20)           114.4415         estimate D2E/DX2                !
 ! A36   A(13,19,21)           106.9848         estimate D2E/DX2                !
 ! A37   A(13,19,22)           106.9188         estimate D2E/DX2                !
 ! A38   A(20,19,21)           109.5016         estimate D2E/DX2                !
 ! A39   A(20,19,22)           109.3926         estimate D2E/DX2                !
 ! A40   A(21,19,22)           109.4825         estimate D2E/DX2                !
 ! D1    D(5,1,2,3)             -7.5035         estimate D2E/DX2                !
 ! D2    D(5,1,2,6)            167.1244         estimate D2E/DX2                !
 ! D3    D(8,1,2,3)            172.2385         estimate D2E/DX2                !
 ! D4    D(8,1,2,6)            -13.1335         estimate D2E/DX2                !
 ! D5    D(2,1,5,4)              9.8517         estimate D2E/DX2                !
 ! D6    D(8,1,5,4)           -169.8901         estimate D2E/DX2                !
 ! D7    D(2,1,8,9)           -179.9992         estimate D2E/DX2                !
 ! D8    D(2,1,8,12)             0.2943         estimate D2E/DX2                !
 ! D9    D(5,1,8,9)             -0.2936         estimate D2E/DX2                !
 ! D10   D(5,1,8,12)           180.0            estimate D2E/DX2                !
 ! D11   D(1,2,3,4)             -0.0431         estimate D2E/DX2                !
 ! D12   D(1,2,3,7)           -179.2886         estimate D2E/DX2                !
 ! D13   D(6,2,3,4)           -174.6687         estimate D2E/DX2                !
 ! D14   D(6,2,3,7)              6.0857         estimate D2E/DX2                !
 ! D15   D(1,2,6,15)           -87.0926         estimate D2E/DX2                !
 ! D16   D(3,2,6,15)            87.0197         estimate D2E/DX2                !
 ! D17   D(2,3,4,5)              7.5694         estimate D2E/DX2                !
 ! D18   D(2,3,4,24)          -172.2013         estimate D2E/DX2                !
 ! D19   D(7,3,4,5)           -173.1857         estimate D2E/DX2                !
 ! D20   D(7,3,4,24)             7.0436         estimate D2E/DX2                !
 ! D21   D(3,4,5,1)             -9.8787         estimate D2E/DX2                !
 ! D22   D(24,4,5,1)           169.8919         estimate D2E/DX2                !
 ! D23   D(2,6,15,16)           58.5844         estimate D2E/DX2                !
 ! D24   D(2,6,15,17)          -58.5865         estimate D2E/DX2                !
 ! D25   D(2,6,15,18)         -179.9334         estimate D2E/DX2                !
 ! D26   D(1,8,9,10)          -172.2049         estimate D2E/DX2                !
 ! D27   D(1,8,9,13)             9.9616         estimate D2E/DX2                !
 ! D28   D(12,8,9,10)            7.5379         estimate D2E/DX2                !
 ! D29   D(12,8,9,13)         -170.2956         estimate D2E/DX2                !
 ! D30   D(1,8,12,11)          169.8716         estimate D2E/DX2                !
 ! D31   D(9,8,12,11)           -9.8711         estimate D2E/DX2                !
 ! D32   D(8,9,10,11)            0.0101         estimate D2E/DX2                !
 ! D33   D(8,9,10,14)          179.3297         estimate D2E/DX2                !
 ! D34   D(13,9,10,11)         177.6174         estimate D2E/DX2                !
 ! D35   D(13,9,10,14)          -3.063          estimate D2E/DX2                !
 ! D36   D(8,9,13,19)           68.3112         estimate D2E/DX2                !
 ! D37   D(10,9,13,19)        -109.1851         estimate D2E/DX2                !
 ! D38   D(9,10,11,12)          -7.5537         estimate D2E/DX2                !
 ! D39   D(9,10,11,23)         172.2439         estimate D2E/DX2                !
 ! D40   D(14,10,11,12)        173.1264         estimate D2E/DX2                !
 ! D41   D(14,10,11,23)         -7.076          estimate D2E/DX2                !
 ! D42   D(10,11,12,8)           9.8842         estimate D2E/DX2                !
 ! D43   D(23,11,12,8)        -169.9137         estimate D2E/DX2                !
 ! D44   D(9,13,19,20)         179.9072         estimate D2E/DX2                !
 ! D45   D(9,13,19,21)         -58.6102         estimate D2E/DX2                !
 ! D46   D(9,13,19,22)          58.6103         estimate D2E/DX2                !
 --------------------------------------------------------------------------------
 Trust Radius=3.00D-01 FncErr=1.00D-07 GrdErr=1.00D-06 EigMax=2.50D+02 EigMin=1.00D-04
 Number of steps in this run=    121 maximum allowed number of steps=    144.
 GradGradGradGradGradGradGradGradGradGradGradGradGradGradGradGradGradGrad

 Leave Link  103 at Thu Jan  9 11:38:34 2020, MaxMem=  1342177280 cpu:               0.1 elap:               0.0
 (Enter /apps/gaussian/g16-a03/l202.exe)
                          Input orientation:                          
 ---------------------------------------------------------------------
 Center     Atomic      Atomic             Coordinates (Angstroms)
 Number     Number       Type             X           Y           Z
 ---------------------------------------------------------------------
      1          6           0        9.467000    8.465000    4.892000
      2          6           0        9.217000    9.807000    4.865000
      3          6           0        9.768000   10.509000    5.974000
      4          6           0       10.438000    9.705000    6.849000
      5         16           0       10.584000    8.072000    6.199000
      6          8           0        8.599000   10.431000    3.817000
      7          1           0        9.656000   11.565000    6.114000
      8          6           0        8.854000    7.439000    3.921000
      9          6           0        9.103000    6.098000    3.947000
     10          6           0        8.553000    5.395000    2.838000
     11          6           0        7.883000    6.199000    1.963000
     12         16           0        7.737000    7.832000    2.614000
     13          8           0        9.785000    5.574000    5.010000
     14          1           0        8.664000    4.340000    2.698000
     15          6           0        8.907000   11.007000    2.615000
     16          1           0        9.387000   10.255000    2.024000
     17          1           0        9.599000   11.798000    2.817000
     18          1           0        8.066000   11.398000    2.082000
     19          6           0        9.610000    5.351000    6.347000
     20          1           0       10.445000    4.889000    6.832000
     21          1           0        9.415000    6.300000    6.799000
     22          1           0        8.749000    4.724000    6.448000
     23          1           0        7.502000    5.885000    1.013000
     24          1           0       10.818000   10.020000    7.798000
 ---------------------------------------------------------------------
                    Distance matrix (angstroms):
                    1          2          3          4          5
     1  C    0.000000
     2  C    1.365355   0.000000
     3  C    2.332222   1.423477   0.000000
     4  C    2.512029   2.331845   1.364163   0.000000
     5  S    1.763629   2.580401   2.579816   1.763662   0.000000
     6  O    2.402958   1.367335   2.454647   3.619671   3.896027
     7  H    3.337515   2.200747   1.071112   2.147405   3.615171
     8  C    1.539898   2.574943   3.804616   4.027033   2.929654
     9  C    2.574531   3.822617   4.899783   4.818120   3.340889
    10  C    3.805156   4.900548   6.120761   6.182026   4.752643
    11  C    4.027760   4.818591   6.182026   6.533992   5.361644
    12  S    2.929654   3.340363   4.751935   5.360854   4.584238
    13  O    2.910830   4.273399   5.028301   4.568752   2.879605
    14  H    4.740682   5.906758   7.071602   7.011498   5.465457
    15  C    3.458337   2.568774   3.503171   4.686782   4.926623
    16  H    3.381704   2.881126   3.976453   4.968674   4.860959
    17  H    3.928351   2.881720   3.414196   4.619696   5.127497
    18  H    4.296672   3.406049   4.339907   5.587211   5.861083
    19  C    3.440126   4.712399   5.173882   4.460370   2.893859
    20  H    4.184239   5.437260   5.725285   4.816035   3.248307
    21  H    2.885581   4.009814   4.303593   3.555707   2.206025
    22  H    4.114820   5.344324   5.893154   5.274835   3.826007
    23  H    5.056112   5.758577   7.150360   7.567786   6.416875
    24  H    3.562031   3.348292   2.160694   1.069685   2.531059
                    6          7          8          9         10
     6  O    0.000000
     7  H    2.771176   0.000000
     8  C    3.004647   4.740921   0.000000
     9  C    4.364150   5.906758   1.364169   0.000000
    10  C    5.130483   7.072318   2.332686   1.423584   0.000000
    11  C    4.675446   7.012010   2.512808   2.331278   1.364163
    12  S    2.990828   5.465149   1.763629   2.578682   2.579729
    13  O    5.140068   6.093237   2.351788   1.367358   2.503487
    14  H    6.193276   8.053182   3.337009   2.200747   1.070021
    15  C    1.368007   3.621514   3.799877   5.090277   5.627574
    16  H    1.966410   4.303087   3.436940   4.589034   4.997775
    17  H    1.966898   3.305714   4.557930   5.832059   6.487909
    18  H    2.056551   4.337397   4.435825   5.713457   6.069985
    19  C    5.764497   6.218537   3.288884   2.564188   3.665006
    20  H    6.573561   6.760697   4.184221   3.403802   4.448341
    21  H    5.159781   5.314841   3.145620   2.876118   4.153503
    22  H    6.286057   6.908942   3.710523   2.875447   3.677058
    23  H    5.452700   7.932359   3.563605   3.349168   2.162250
    24  H    4.576160   2.563811   5.054699   5.757908   7.149997
                   11         12         13         14         15
    11  C    0.000000
    12  S    1.764031   0.000000
    13  O    3.645880   3.877329   0.000000
    14  H    2.146175   3.613924   2.850393   0.000000
    15  C    4.958885   3.383715   6.002033   6.671943   0.000000
    16  H    4.326300   2.990239   5.566539   5.997018   1.070133
    17  H    5.918004   4.386047   6.601668   7.517323   1.070210
    18  H    5.203581   3.620445   6.741448   7.110023   1.069697
    19  C    4.787597   4.857857   1.366720   3.902850   6.812662
    20  H    5.655714   5.812576   2.055361   4.534679   7.588047
    21  H    5.073866   4.762030   1.965832   4.606930   6.318209
    22  H    4.800084   5.038191   1.965614   3.770568   7.361586
    23  H    1.070634   2.531647   4.613547   2.564468   5.547550
    24  H    7.567132   6.415120   5.348546   7.931716   5.611558
                   16         17         18         19         20
    16  H    0.000000
    17  H    1.747753   0.000000
    18  H    1.747814   1.746515   0.000000
    19  C    6.541198   7.350159   7.559125   0.000000
    20  H    7.282183   8.035560   8.401739   1.070464   0.000000
    21  H    6.200277   6.791037   7.075273   1.069079   1.747258
    22  H    7.111314   7.996758   8.004419   1.069884   1.746739
    23  H    4.865413   6.528047   5.643937   5.760241   6.596516
    24  H    5.953324   5.427486   6.491921   5.036291   5.234448
                   21         22         23         24
    21  H    0.000000
    22  H    1.746578   0.000000
    23  H    6.108158   5.695802   0.000000
    24  H    4.099367   5.843875   8.609896   0.000000
 Stoichiometry    C10H10O2S2
 Framework group  C1[X(C10H10O2S2)]
 Deg. of freedom    66
 Full point group                 C1      NOp   1
 Largest Abelian subgroup         C1      NOp   1
 Largest concise Abelian subgroup C1      NOp   1
                         Standard orientation:                         
 ---------------------------------------------------------------------
 Center     Atomic      Atomic             Coordinates (Angstroms)
 Number     Number       Type             X           Y           Z
 ---------------------------------------------------------------------
      1          6           0       -0.683109   -0.241546    0.012509
      2          6           0       -1.766428    0.553099   -0.230703
      3          6           0       -2.993453   -0.165445   -0.296977
      4          6           0       -2.849085   -1.508385   -0.105636
      5         16           0       -1.196293   -1.888754    0.378206
      6          8           0       -1.694463    1.917306   -0.288701
      7          1           0       -3.937269    0.302299   -0.491157
      8          6           0        0.780943    0.233623   -0.032802
      9          6           0        1.864088   -0.559352    0.209984
     10          6           0        3.091716    0.158288    0.277163
     11          6           0        2.947348    1.501228    0.085822
     12         16           0        1.294127    1.880831   -0.398499
     13          8           0        1.682519   -1.910585    0.314238
     14          1           0        4.034929   -0.308552    0.470437
     15          6           0       -1.756634    3.003190    0.541018
     16          1           0       -0.978028    2.885521    1.265664
     17          1           0       -2.707896    2.967311    1.030061
     18          1           0       -1.646183    3.945657    0.047250
     19          6           0        1.346812   -2.976169   -0.473008
     20          1           0        1.319923   -3.915093    0.040405
     21          1           0        0.383179   -2.767724   -0.886399
     22          1           0        2.070291   -3.022128   -1.259848
     23          1           0        3.726269    2.224385    0.214600
     24          1           0       -3.628180   -2.229872   -0.234841
 ---------------------------------------------------------------------
 Rotational constants (GHZ):           0.6978071           0.5802016           0.3281149
 Leave Link  202 at Thu Jan  9 11:38:35 2020, MaxMem=  1342177280 cpu:               0.1 elap:               0.0
 (Enter /apps/gaussian/g16-a03/l301.exe)
 Standard basis: 6-311G (5D, 7F)
 Ernie: Thresh=  0.10000D-02 Tol=  0.10000D-05 Strict=F.
 There are   228 symmetry adapted cartesian basis functions of A   symmetry.
 There are   228 symmetry adapted basis functions of A   symmetry.
   228 basis functions,   442 primitive gaussians,   228 cartesian basis functions
    59 alpha electrons       59 beta electrons
       nuclear repulsion energy      1118.7908205711 Hartrees.
 IExCor=  402 DFT=T Ex+Corr=B3LYP ExCW=0 ScaHFX=  0.200000
 ScaDFX=  0.800000  0.720000  1.000000  0.810000 ScalE2=  1.000000  1.000000
 IRadAn=      5 IRanWt=     -1 IRanGd=            0 ICorTp=0 IEmpDi=  4
 NAtoms=   24 NActive=   24 NUniq=   24 SFac= 1.00D+00 NAtFMM=   60 NAOKFM=F Big=F
 Integral buffers will be    131072 words long.
 Raffenetti 2 integral format.
 Two-electron integral symmetry is turned on.
 Leave Link  301 at Thu Jan  9 11:38:36 2020, MaxMem=  1342177280 cpu:               0.7 elap:               0.1
 (Enter /apps/gaussian/g16-a03/l302.exe)
 NPDir=0 NMtPBC=     1 NCelOv=     1 NCel=       1 NClECP=     1 NCelD=      1
         NCelK=      1 NCelE2=     1 NClLst=     1 CellRange=     0.0.
 One-electron integrals computed using PRISM.
 One-electron integral symmetry used in STVInt
 NBasis=   228 RedAO= T EigKep=  5.52D-04  NBF=   228
 NBsUse=   228 1.00D-06 EigRej= -1.00D+00 NBFU=   228
 Precomputing XC quadrature grid using
 IXCGrd= 4 IRadAn=           5 IRanWt=          -1 IRanGd=           0 AccXCQ= 0.00D+00.
 Generated NRdTot=       0 NPtTot=           0 NUsed=           0 NTot=          32
 NSgBfM=   226   226   226   226   226 MxSgAt=    24 MxSgA2=    24.
 Leave Link  302 at Thu Jan  9 11:38:37 2020, MaxMem=  1342177280 cpu:               4.2 elap:               0.6
 (Enter /apps/gaussian/g16-a03/l303.exe)
 DipDrv:  MaxL=1.
 Leave Link  303 at Thu Jan  9 11:38:38 2020, MaxMem=  1342177280 cpu:               0.3 elap:               0.1
 (Enter /apps/gaussian/g16-a03/l401.exe)
 ExpMin= 7.71D-02 ExpMax= 9.34D+04 ExpMxC= 3.17D+03 IAcc=3 IRadAn=         5 AccDes= 0.00D+00
 Harris functional with IExCor=  402 and IRadAn=       5 diagonalized for initial guess.
 HarFok:  IExCor=  402 AccDes= 0.00D+00 IRadAn=         5 IDoV= 1 UseB2=F ITyADJ=14
 ICtDFT=  3500011 ScaDFX=  1.000000  1.000000  1.000000  1.000000
 FoFCou: FMM=F IPFlag=           0 FMFlag=      100000 FMFlg1=           0
         NFxFlg=           0 DoJE=T BraDBF=F KetDBF=T FulRan=T
         wScrn=  0.000000 ICntrl=       500 IOpCl=  0 I1Cent=   200000004 NGrid=           0
         NMat0=    1 NMatS0=      1 NMatT0=    0 NMatD0=    1 NMtDS0=    0 NMtDT0=    0
 Petite list used in FoFCou.
 Harris En= -1333.70487291618    
 JPrj=0 DoOrth=F DoCkMO=F.
 Leave Link  401 at Thu Jan  9 11:38:40 2020, MaxMem=  1342177280 cpu:              13.5 elap:               1.7
 (Enter /apps/gaussian/g16-a03/l502.exe)
 Integral symmetry usage will be decided dynamically.
 Closed shell SCF:
 Using DIIS extrapolation, IDIIS=  1040.
 NGot=  1342177280 LenX=  1342068876 LenY=  1342016451
 Requested convergence on RMS density matrix=1.00D-08 within 128 cycles.
 Requested convergence on MAX density matrix=1.00D-06.
 Requested convergence on             energy=1.00D-06.
 No special actions if energy rises.
 Fock matrices will be formed incrementally for  20 cycles.
 Integral accuracy reduced to 1.0D-05 until final iterations.

 Cycle   1  Pass 0  IDiag  1:
 FoFJK:  IHMeth= 1 ICntrl=       0 DoSepK=F KAlg= 0 I1Cent=           0 FoldK=F
 IRaf= 840000000 NMat=       1 IRICut=       1 DoRegI=T DoRafI=F ISym2E= 0 IDoP0=0 IntGTp=1.
 FoFCou: FMM=F IPFlag=           0 FMFlag=      100000 FMFlg1=           0
         NFxFlg=           0 DoJE=F BraDBF=F KetDBF=F FulRan=T
         wScrn=  0.000000 ICntrl=         0 IOpCl=  0 I1Cent=           0 NGrid=           0
         NMat0=    1 NMatS0=      1 NMatT0=    0 NMatD0=    1 NMtDS0=    0 NMtDT0=    0
 Symmetry not used in FoFCou.
 E= -1333.30929669824    
 DIIS: error= 3.83D-02 at cycle   1 NSaved=   1.
 NSaved= 1 IEnMin= 1 EnMin= -1333.30929669824     IErMin= 1 ErrMin= 3.83D-02
 ErrMax= 3.83D-02  0.00D+00 EMaxC= 1.00D-01 BMatC= 4.74D-01 BMatP= 4.74D-01
 IDIUse=3 WtCom= 6.17D-01 WtEn= 3.83D-01
 Coeff-Com:  0.100D+01
 Coeff-En:   0.100D+01
 Coeff:      0.100D+01
 Gap=     0.093 Goal=   None    Shift=    0.000
 GapD=    0.093 DampG=0.500 DampE=0.500 DampFc=0.2500 IDamp=-1.
 Damping current iteration by 2.50D-01
 RMSDP=9.05D-03 MaxDP=2.91D-01              OVMax= 2.81D-01

 Cycle   2  Pass 0  IDiag  1:
 RMSU=  2.26D-03    CP:  1.00D+00
 E= -1333.46615719364     Delta-E=       -0.156860495396 Rises=F Damp=T
 DIIS: error= 1.49D-02 at cycle   2 NSaved=   2.
 NSaved= 2 IEnMin= 2 EnMin= -1333.46615719364     IErMin= 2 ErrMin= 1.49D-02
 ErrMax= 1.49D-02  0.00D+00 EMaxC= 1.00D-01 BMatC= 1.09D-01 BMatP= 4.74D-01
 IDIUse=3 WtCom= 8.51D-01 WtEn= 1.49D-01
 Coeff-Com: -0.739D+00 0.174D+01
 Coeff-En:   0.000D+00 0.100D+01
 Coeff:     -0.629D+00 0.163D+01
 Gap=     0.220 Goal=   None    Shift=    0.000
 RMSDP=1.93D-03 MaxDP=4.84D-02 DE=-1.57D-01 OVMax= 2.54D-01

 Cycle   3  Pass 0  IDiag  1:
 RMSU=  1.86D-03    CP:  1.01D+00  1.21D+00
 E= -1333.71011479650     Delta-E=       -0.243957602858 Rises=F Damp=F
 DIIS: error= 7.57D-03 at cycle   3 NSaved=   3.
 NSaved= 3 IEnMin= 3 EnMin= -1333.71011479650     IErMin= 3 ErrMin= 7.57D-03
 ErrMax= 7.57D-03  0.00D+00 EMaxC= 1.00D-01 BMatC= 1.33D-02 BMatP= 1.09D-01
 IDIUse=3 WtCom= 9.24D-01 WtEn= 7.57D-02
 Coeff-Com: -0.290D+00 0.665D+00 0.626D+00
 Coeff-En:   0.000D+00 0.000D+00 0.100D+01
 Coeff:     -0.268D+00 0.614D+00 0.654D+00
 Gap=     0.150 Goal=   None    Shift=    0.000
 RMSDP=9.00D-04 MaxDP=2.37D-02 DE=-2.44D-01 OVMax= 5.41D-02

 Cycle   4  Pass 0  IDiag  1:
 RMSU=  7.69D-04    CP:  1.01D+00  1.36D+00  8.30D-01
 E= -1333.71542168022     Delta-E=       -0.005306883723 Rises=F Damp=F
 DIIS: error= 6.20D-03 at cycle   4 NSaved=   4.
 NSaved= 4 IEnMin= 4 EnMin= -1333.71542168022     IErMin= 4 ErrMin= 6.20D-03
 ErrMax= 6.20D-03  0.00D+00 EMaxC= 1.00D-01 BMatC= 8.10D-03 BMatP= 1.33D-02
 IDIUse=3 WtCom= 9.38D-01 WtEn= 6.20D-02
 Coeff-Com: -0.556D-01 0.120D+00 0.429D+00 0.506D+00
 Coeff-En:   0.000D+00 0.000D+00 0.392D+00 0.608D+00
 Coeff:     -0.522D-01 0.113D+00 0.427D+00 0.512D+00
 Gap=     0.150 Goal=   None    Shift=    0.000
 RMSDP=5.37D-04 MaxDP=2.04D-02 DE=-5.31D-03 OVMax= 3.01D-02

 Cycle   5  Pass 0  IDiag  1:
 RMSU=  2.66D-04    CP:  1.01D+00  1.30D+00  8.22D-01  4.35D-01
 E= -1333.72268411083     Delta-E=       -0.007262430613 Rises=F Damp=F
 DIIS: error= 1.15D-03 at cycle   5 NSaved=   5.
 NSaved= 5 IEnMin= 5 EnMin= -1333.72268411083     IErMin= 5 ErrMin= 1.15D-03
 ErrMax= 1.15D-03  0.00D+00 EMaxC= 1.00D-01 BMatC= 3.93D-04 BMatP= 8.10D-03
 IDIUse=3 WtCom= 9.88D-01 WtEn= 1.15D-02
 Coeff-Com: -0.113D-01 0.261D-01 0.211D+00 0.290D+00 0.484D+00
 Coeff-En:   0.000D+00 0.000D+00 0.000D+00 0.000D+00 0.100D+01
 Coeff:     -0.112D-01 0.258D-01 0.208D+00 0.287D+00 0.490D+00
 Gap=     0.151 Goal=   None    Shift=    0.000
 RMSDP=1.44D-04 MaxDP=3.91D-03 DE=-7.26D-03 OVMax= 8.39D-03

 Cycle   6  Pass 0  IDiag  1:
 RMSU=  8.66D-05    CP:  1.01D+00  1.29D+00  8.40D-01  5.21D-01  6.71D-01
 E= -1333.72301226615     Delta-E=       -0.000328155320 Rises=F Damp=F
 DIIS: error= 6.30D-04 at cycle   6 NSaved=   6.
 NSaved= 6 IEnMin= 6 EnMin= -1333.72301226615     IErMin= 6 ErrMin= 6.30D-04
 ErrMax= 6.30D-04  0.00D+00 EMaxC= 1.00D-01 BMatC= 5.80D-05 BMatP= 3.93D-04
 IDIUse=3 WtCom= 9.94D-01 WtEn= 6.30D-03
 Coeff-Com:  0.165D-02-0.107D-02 0.872D-01 0.127D+00 0.308D+00 0.477D+00
 Coeff-En:   0.000D+00 0.000D+00 0.000D+00 0.000D+00 0.124D+00 0.876D+00
 Coeff:      0.164D-02-0.106D-02 0.866D-01 0.126D+00 0.307D+00 0.480D+00
 Gap=     0.150 Goal=   None    Shift=    0.000
 RMSDP=5.52D-05 MaxDP=9.96D-04 DE=-3.28D-04 OVMax= 3.71D-03

 Cycle   7  Pass 0  IDiag  1:
 RMSU=  3.01D-05    CP:  1.01D+00  1.29D+00  8.44D-01  5.06D-01  7.32D-01
                    CP:  5.29D-01
 E= -1333.72306874066     Delta-E=       -0.000056474510 Rises=F Damp=F
 DIIS: error= 1.90D-04 at cycle   7 NSaved=   7.
 NSaved= 7 IEnMin= 7 EnMin= -1333.72306874066     IErMin= 7 ErrMin= 1.90D-04
 ErrMax= 1.90D-04  0.00D+00 EMaxC= 1.00D-01 BMatC= 6.90D-06 BMatP= 5.80D-05
 IDIUse=3 WtCom= 9.98D-01 WtEn= 1.90D-03
 Coeff-Com:  0.323D-02-0.515D-02 0.174D-01 0.259D-01 0.948D-01 0.296D+00
 Coeff-Com:  0.568D+00
 Coeff-En:   0.000D+00 0.000D+00 0.000D+00 0.000D+00 0.000D+00 0.118D+00
 Coeff-En:   0.882D+00
 Coeff:      0.322D-02-0.514D-02 0.174D-01 0.258D-01 0.946D-01 0.296D+00
 Coeff:      0.569D+00
 Gap=     0.151 Goal=   None    Shift=    0.000
 RMSDP=1.89D-05 MaxDP=2.97D-04 DE=-5.65D-05 OVMax= 1.09D-03

 Cycle   8  Pass 0  IDiag  1:
 RMSU=  8.10D-06    CP:  1.01D+00  1.29D+00  8.46D-01  5.10D-01  7.10D-01
                    CP:  6.37D-01  6.26D-01
 E= -1333.72307644035     Delta-E=       -0.000007699688 Rises=F Damp=F
 DIIS: error= 3.50D-05 at cycle   8 NSaved=   8.
 NSaved= 8 IEnMin= 8 EnMin= -1333.72307644035     IErMin= 8 ErrMin= 3.50D-05
 ErrMax= 3.50D-05  0.00D+00 EMaxC= 1.00D-01 BMatC= 1.96D-07 BMatP= 6.90D-06
 IDIUse=1 WtCom= 1.00D+00 WtEn= 0.00D+00
 Coeff-Com:  0.127D-02-0.209D-02 0.153D-02 0.205D-02 0.168D-01 0.845D-01
 Coeff-Com:  0.235D+00 0.661D+00
 Coeff:      0.127D-02-0.209D-02 0.153D-02 0.205D-02 0.168D-01 0.845D-01
 Coeff:      0.235D+00 0.661D+00
 Gap=     0.151 Goal=   None    Shift=    0.000
 RMSDP=3.21D-06 MaxDP=7.57D-05 DE=-7.70D-06 OVMax= 9.33D-05

 Initial convergence to 1.0D-05 achieved.  Increase integral accuracy.
 Cycle   9  Pass 1  IDiag  1:
 E= -1333.72305930059     Delta-E=        0.000017139765 Rises=F Damp=F
 DIIS: error= 1.81D-05 at cycle   1 NSaved=   1.
 NSaved= 1 IEnMin= 1 EnMin= -1333.72305930059     IErMin= 1 ErrMin= 1.81D-05
 ErrMax= 1.81D-05  0.00D+00 EMaxC= 1.00D-01 BMatC= 6.30D-08 BMatP= 6.30D-08
 IDIUse=1 WtCom= 1.00D+00 WtEn= 0.00D+00
 Coeff-Com:  0.100D+01
 Coeff:      0.100D+01
 Gap=     0.151 Goal=   None    Shift=    0.000
 RMSDP=3.21D-06 MaxDP=7.57D-05 DE= 1.71D-05 OVMax= 9.60D-05

 Cycle  10  Pass 1  IDiag  1:
 RMSU=  8.52D-06    CP:  1.00D+00
 E= -1333.72305933926     Delta-E=       -0.000000038674 Rises=F Damp=F
 DIIS: error= 8.89D-06 at cycle   2 NSaved=   2.
 NSaved= 2 IEnMin= 2 EnMin= -1333.72305933926     IErMin= 2 ErrMin= 8.89D-06
 ErrMax= 8.89D-06  0.00D+00 EMaxC= 1.00D-01 BMatC= 3.31D-08 BMatP= 6.30D-08
 IDIUse=1 WtCom= 1.00D+00 WtEn= 0.00D+00
 Coeff-Com:  0.390D+00 0.610D+00
 Coeff:      0.390D+00 0.610D+00
 Gap=     0.151 Goal=   None    Shift=    0.000
 RMSDP=2.02D-06 MaxDP=5.50D-05 DE=-3.87D-08 OVMax= 1.01D-04

 Cycle  11  Pass 1  IDiag  1:
 RMSU=  1.98D-06    CP:  1.00D+00  9.65D-01
 E= -1333.72305935694     Delta-E=       -0.000000017676 Rises=F Damp=F
 DIIS: error= 7.35D-06 at cycle   3 NSaved=   3.
 NSaved= 3 IEnMin= 3 EnMin= -1333.72305935694     IErMin= 3 ErrMin= 7.35D-06
 ErrMax= 7.35D-06  0.00D+00 EMaxC= 1.00D-01 BMatC= 1.76D-08 BMatP= 3.31D-08
 IDIUse=1 WtCom= 1.00D+00 WtEn= 0.00D+00
 Coeff-Com:  0.472D-01 0.413D+00 0.540D+00
 Coeff:      0.472D-01 0.413D+00 0.540D+00
 Gap=     0.151 Goal=   None    Shift=    0.000
 RMSDP=9.65D-07 MaxDP=2.30D-05 DE=-1.77D-08 OVMax= 6.33D-05

 Cycle  12  Pass 1  IDiag  1:
 RMSU=  4.86D-07    CP:  1.00D+00  9.90D-01  5.93D-01
 E= -1333.72305937413     Delta-E=       -0.000000017191 Rises=F Damp=F
 DIIS: error= 2.81D-06 at cycle   4 NSaved=   4.
 NSaved= 4 IEnMin= 4 EnMin= -1333.72305937413     IErMin= 4 ErrMin= 2.81D-06
 ErrMax= 2.81D-06  0.00D+00 EMaxC= 1.00D-01 BMatC= 2.33D-09 BMatP= 1.76D-08
 IDIUse=1 WtCom= 1.00D+00 WtEn= 0.00D+00
 Coeff-Com: -0.515D-02 0.218D+00 0.351D+00 0.436D+00
 Coeff:     -0.515D-02 0.218D+00 0.351D+00 0.436D+00
 Gap=     0.151 Goal=   None    Shift=    0.000
 RMSDP=2.80D-07 MaxDP=5.43D-06 DE=-1.72D-08 OVMax= 1.82D-05

 Cycle  13  Pass 1  IDiag  1:
 RMSU=  1.18D-07    CP:  1.00D+00  9.93D-01  6.46D-01  5.31D-01
 E= -1333.72305937648     Delta-E=       -0.000000002355 Rises=F Damp=F
 DIIS: error= 5.60D-07 at cycle   5 NSaved=   5.
 NSaved= 5 IEnMin= 5 EnMin= -1333.72305937648     IErMin= 5 ErrMin= 5.60D-07
 ErrMax= 5.60D-07  0.00D+00 EMaxC= 1.00D-01 BMatC= 7.13D-11 BMatP= 2.33D-09
 IDIUse=1 WtCom= 1.00D+00 WtEn= 0.00D+00
 Coeff-Com: -0.516D-02 0.104D+00 0.173D+00 0.248D+00 0.480D+00
 Coeff:     -0.516D-02 0.104D+00 0.173D+00 0.248D+00 0.480D+00
 Gap=     0.151 Goal=   None    Shift=    0.000
 RMSDP=5.88D-08 MaxDP=1.40D-06 DE=-2.35D-09 OVMax= 3.32D-06

 Cycle  14  Pass 1  IDiag  1:
 RMSU=  4.03D-08    CP:  1.00D+00  9.94D-01  6.36D-01  5.34D-01  6.87D-01
 E= -1333.72305937654     Delta-E=       -0.000000000060 Rises=F Damp=F
 DIIS: error= 1.52D-07 at cycle   6 NSaved=   6.
 NSaved= 6 IEnMin= 6 EnMin= -1333.72305937654     IErMin= 6 ErrMin= 1.52D-07
 ErrMax= 1.52D-07  0.00D+00 EMaxC= 1.00D-01 BMatC= 6.32D-12 BMatP= 7.13D-11
 IDIUse=1 WtCom= 1.00D+00 WtEn= 0.00D+00
 Coeff-Com: -0.252D-02 0.411D-01 0.683D-01 0.105D+00 0.271D+00 0.518D+00
 Coeff:     -0.252D-02 0.411D-01 0.683D-01 0.105D+00 0.271D+00 0.518D+00
 Gap=     0.151 Goal=   None    Shift=    0.000
 RMSDP=2.11D-08 MaxDP=3.61D-07 DE=-5.96D-11 OVMax= 1.37D-06

 Cycle  15  Pass 1  IDiag  1:
 RMSU=  1.53D-08    CP:  1.00D+00  9.94D-01  6.36D-01  5.40D-01  7.42D-01
                    CP:  6.90D-01
 E= -1333.72305937655     Delta-E=       -0.000000000010 Rises=F Damp=F
 DIIS: error= 6.22D-08 at cycle   7 NSaved=   7.
 NSaved= 7 IEnMin= 7 EnMin= -1333.72305937655     IErMin= 7 ErrMin= 6.22D-08
 ErrMax= 6.22D-08  0.00D+00 EMaxC= 1.00D-01 BMatC= 1.43D-12 BMatP= 6.32D-12
 IDIUse=1 WtCom= 1.00D+00 WtEn= 0.00D+00
 Coeff-Com: -0.328D-03 0.110D-02 0.235D-02 0.840D-02 0.577D-01 0.342D+00
 Coeff-Com:  0.589D+00
 Coeff:     -0.328D-03 0.110D-02 0.235D-02 0.840D-02 0.577D-01 0.342D+00
 Coeff:      0.589D+00
 Gap=     0.151 Goal=   None    Shift=    0.000
 RMSDP=8.93D-09 MaxDP=2.74D-07 DE=-9.55D-12 OVMax= 4.54D-07

 SCF Done:  E(RB3LYP) =  -1333.72305938     A.U. after   15 cycles
            NFock= 15  Conv=0.89D-08     -V/T= 2.0014
 KE= 1.331800187775D+03 PE=-5.385143566471D+03 EE= 1.600829498749D+03
 Leave Link  502 at Thu Jan  9 11:39:05 2020, MaxMem=  1342177280 cpu:             196.5 elap:              24.6
 (Enter /apps/gaussian/g16-a03/l601.exe)
 Copying SCF densities to generalized density rwf, IOpCl= 0 IROHF=0.

 **********************************************************************

            Population analysis using the SCF density.

 **********************************************************************

 Orbital symmetries:
       Occupied  (A) (A) (A) (A) (A) (A) (A) (A) (A) (A) (A) (A)
                 (A) (A) (A) (A) (A) (A) (A) (A) (A) (A) (A) (A)
                 (A) (A) (A) (A) (A) (A) (A) (A) (A) (A) (A) (A)
                 (A) (A) (A) (A) (A) (A) (A) (A) (A) (A) (A) (A)
                 (A) (A) (A) (A) (A) (A) (A) (A) (A) (A) (A)
       Virtual   (A) (A) (A) (A) (A) (A) (A) (A) (A) (A) (A) (A)
                 (A) (A) (A) (A) (A) (A) (A) (A) (A) (A) (A) (A)
                 (A) (A) (A) (A) (A) (A) (A) (A) (A) (A) (A) (A)
                 (A) (A) (A) (A) (A) (A) (A) (A) (A) (A) (A) (A)
                 (A) (A) (A) (A) (A) (A) (A) (A) (A) (A) (A) (A)
                 (A) (A) (A) (A) (A) (A) (A) (A) (A) (A) (A) (A)
                 (A) (A) (A) (A) (A) (A) (A) (A) (A) (A) (A) (A)
                 (A) (A) (A) (A) (A) (A) (A) (A) (A) (A) (A) (A)
                 (A) (A) (A) (A) (A) (A) (A) (A) (A) (A) (A) (A)
                 (A) (A) (A) (A) (A) (A) (A) (A) (A) (A) (A) (A)
                 (A) (A) (A) (A) (A) (A) (A) (A) (A) (A) (A) (A)
                 (A) (A) (A) (A) (A) (A) (A) (A) (A) (A) (A) (A)
                 (A) (A) (A) (A) (A) (A) (A) (A) (A) (A) (A) (A)
                 (A) (A) (A) (A) (A) (A) (A) (A) (A) (A) (A) (A)
                 (A)
 The electronic state is 1-A.
 Alpha  occ. eigenvalues --  -88.88765 -88.88496 -19.12907 -19.12841 -10.25007
 Alpha  occ. eigenvalues --  -10.24892 -10.22608 -10.22297 -10.22224 -10.21402
 Alpha  occ. eigenvalues --  -10.20960 -10.20853 -10.18364 -10.18289  -7.97714
 Alpha  occ. eigenvalues --   -7.97360  -5.94025  -5.93677  -5.93599  -5.93253
 Alpha  occ. eigenvalues --   -5.93063  -5.92718  -1.06991  -1.06802  -0.90654
 Alpha  occ. eigenvalues --   -0.89451  -0.77872  -0.77438  -0.76676  -0.73131
 Alpha  occ. eigenvalues --   -0.69476  -0.68670  -0.60462  -0.59502  -0.56013
 Alpha  occ. eigenvalues --   -0.55450  -0.54300  -0.49443  -0.48092  -0.47855
 Alpha  occ. eigenvalues --   -0.47481  -0.47381  -0.45677  -0.45510  -0.42908
 Alpha  occ. eigenvalues --   -0.41237  -0.40820  -0.39989  -0.38504  -0.35361
 Alpha  occ. eigenvalues --   -0.34812  -0.32707  -0.32391  -0.27837  -0.27634
 Alpha  occ. eigenvalues --   -0.27188  -0.24589  -0.23745  -0.20020
 Alpha virt. eigenvalues --   -0.04965   0.00385   0.01555   0.02862   0.04873
 Alpha virt. eigenvalues --    0.05399   0.06062   0.06866   0.07039   0.07259
 Alpha virt. eigenvalues --    0.09015   0.09465   0.09863   0.10898   0.11741
 Alpha virt. eigenvalues --    0.12633   0.12952   0.13212   0.13719   0.14751
 Alpha virt. eigenvalues --    0.17951   0.19426   0.20540   0.21792   0.22280
 Alpha virt. eigenvalues --    0.22562   0.25420   0.26192   0.26788   0.29395
 Alpha virt. eigenvalues --    0.29564   0.30998   0.32230   0.33024   0.34470
 Alpha virt. eigenvalues --    0.35098   0.36651   0.37928   0.39268   0.42717
 Alpha virt. eigenvalues --    0.43321   0.43850   0.44307   0.44780   0.46644
 Alpha virt. eigenvalues --    0.46879   0.47973   0.48639   0.49746   0.51317
 Alpha virt. eigenvalues --    0.51516   0.53296   0.53883   0.55034   0.55935
 Alpha virt. eigenvalues --    0.56636   0.57582   0.58078   0.59500   0.60024
 Alpha virt. eigenvalues --    0.60180   0.61014   0.62199   0.62732   0.64545
 Alpha virt. eigenvalues --    0.64890   0.65715   0.66332   0.67250   0.69781
 Alpha virt. eigenvalues --    0.71033   0.73223   0.76547   0.77189   0.78180
 Alpha virt. eigenvalues --    0.79706   0.80304   0.82042   0.83695   0.86503
 Alpha virt. eigenvalues --    0.88273   0.91019   0.92574   0.96226   0.96798
 Alpha virt. eigenvalues --    1.00894   1.02091   1.05313   1.10995   1.14983
 Alpha virt. eigenvalues --    1.18030   1.29379   1.30439   1.51868   1.54934
 Alpha virt. eigenvalues --    1.64503   1.66960   1.69092   1.69997   1.75673
 Alpha virt. eigenvalues --    1.80126   2.21419   2.22564   2.23787   2.24322
 Alpha virt. eigenvalues --    2.25288   2.26101   2.26752   2.29758   2.33335
 Alpha virt. eigenvalues --    2.33977   2.54220   2.54835   2.55740   2.60586
 Alpha virt. eigenvalues --    2.63433   2.66285   2.68390   2.73010   2.73532
 Alpha virt. eigenvalues --    2.75179   2.77946   2.79641   2.82657   2.86385
 Alpha virt. eigenvalues --    2.87149   2.87963   2.90066   2.91724   2.92184
 Alpha virt. eigenvalues --    2.93694   2.95635   2.97403   3.05593   3.09156
 Alpha virt. eigenvalues --    3.14352   3.15503   3.15935   3.23743   3.26200
 Alpha virt. eigenvalues --    3.30204   4.89898   4.90260   4.98811   5.03504
 Alpha virt. eigenvalues --    5.18115   5.18404   7.64355   7.71269  17.18041
 Alpha virt. eigenvalues --   17.20071  17.33927  17.34662  17.40420  17.44777
 Alpha virt. eigenvalues --   23.14068  23.23496  23.31062  23.35077  23.36968
 Alpha virt. eigenvalues --   23.38946  23.53843  23.58423  23.73478  23.73817
 Alpha virt. eigenvalues --   49.89163  49.89890 188.78123 188.86364
          Condensed to atoms (all electrons):
               1          2          3          4          5          6
     1  C    6.178944   0.106973  -0.000364  -0.154500   0.247407  -0.112449
     2  C    0.106973   4.994793   0.377038   0.014650  -0.095148   0.279760
     3  C   -0.000364   0.377038   5.255901   0.263550  -0.109693  -0.066065
     4  C   -0.154500   0.014650   0.263550   5.774638   0.195130   0.009849
     5  S    0.247407  -0.095148  -0.109693   0.195130  15.544056   0.007048
     6  O   -0.112449   0.279760  -0.066065   0.009849   0.007048   8.423134
     7  H    0.016252  -0.046399   0.375090  -0.042904   0.006306   0.001416
     8  C    0.145743  -0.022586   0.008417   0.013760  -0.082573   0.002660
     9  C   -0.020190   0.010726  -0.000596  -0.000329  -0.000512   0.001299
    10  C    0.008133  -0.000531   0.000022  -0.000006   0.002071  -0.000089
    11  C    0.011771  -0.000007   0.000002   0.000003  -0.000232   0.000635
    12  S   -0.077150  -0.000703   0.002181  -0.000201   0.002531   0.017199
    13  O    0.001325   0.002157  -0.000092   0.000759   0.025456  -0.000002
    14  H   -0.000533  -0.000005   0.000000  -0.000000  -0.000034   0.000000
    15  C   -0.001778  -0.046121  -0.001867   0.000366   0.000450   0.173942
    16  H    0.010659  -0.002712  -0.000820   0.000034  -0.001097  -0.062450
    17  H   -0.001551   0.000369   0.005971  -0.000592  -0.000166  -0.056544
    18  H   -0.000552   0.001148  -0.000479   0.000045   0.000084  -0.029199
    19  C   -0.002658   0.000197  -0.000206   0.000303  -0.071251   0.000002
    20  H    0.000349  -0.000016   0.000000  -0.000177  -0.000705   0.000000
    21  H   -0.010382  -0.000566   0.000112  -0.003035  -0.036105  -0.000003
    22  H    0.000715   0.000039   0.000007   0.000036   0.009639  -0.000000
    23  H   -0.000336   0.000007   0.000000  -0.000000   0.000022   0.000013
    24  H   -0.000535   0.006865  -0.018486   0.380476  -0.024592  -0.000140
               7          8          9         10         11         12
     1  C    0.016252   0.145743  -0.020190   0.008133   0.011771  -0.077150
     2  C   -0.046399  -0.022586   0.010726  -0.000531  -0.000007  -0.000703
     3  C    0.375090   0.008417  -0.000596   0.000022   0.000002   0.002181
     4  C   -0.042904   0.013760  -0.000329  -0.000006   0.000003  -0.000201
     5  S    0.006306  -0.082573  -0.000512   0.002071  -0.000232   0.002531
     6  O    0.001416   0.002660   0.001299  -0.000089   0.000635   0.017199
     7  H    0.519953  -0.000536  -0.000003   0.000000  -0.000000  -0.000013
     8  C   -0.000536   6.185749   0.115458  -0.010624  -0.155375   0.251862
     9  C   -0.000003   0.115458   4.979900   0.387791   0.020608  -0.096691
    10  C    0.000000  -0.010624   0.387791   5.229918   0.265904  -0.108558
    11  C   -0.000000  -0.155375   0.020608   0.265904   5.772547   0.200016
    12  S   -0.000013   0.251862  -0.096691  -0.108558   0.200016  15.432812
    13  O   -0.000000  -0.111284   0.263839  -0.057285   0.008199   0.007902
    14  H    0.000000   0.016386  -0.044608   0.372089  -0.042401   0.006321
    15  C   -0.000391   0.000057  -0.000019   0.000009  -0.000352  -0.008014
    16  H    0.000358  -0.000359  -0.000338   0.000117  -0.000741  -0.005357
    17  H   -0.000212   0.000322   0.000017  -0.000001   0.000021   0.003084
    18  H   -0.000180  -0.000040  -0.000002   0.000002  -0.000096  -0.002559
    19  C    0.000001   0.002147  -0.048085  -0.000583   0.000234   0.000360
    20  H    0.000000  -0.000889   0.001389  -0.000136   0.000031   0.000109
    21  H   -0.000007   0.015012  -0.006804  -0.001461   0.000065  -0.001319
    22  H   -0.000000  -0.001014   0.003134   0.003792  -0.000356  -0.000372
    23  H    0.000000  -0.000705   0.007245  -0.021019   0.382942  -0.024048
    24  H   -0.005157  -0.000316   0.000003   0.000000   0.000000   0.000024
              13         14         15         16         17         18
     1  C    0.001325  -0.000533  -0.001778   0.010659  -0.001551  -0.000552
     2  C    0.002157  -0.000005  -0.046121  -0.002712   0.000369   0.001148
     3  C   -0.000092   0.000000  -0.001867  -0.000820   0.005971  -0.000479
     4  C    0.000759  -0.000000   0.000366   0.000034  -0.000592   0.000045
     5  S    0.025456  -0.000034   0.000450  -0.001097  -0.000166   0.000084
     6  O   -0.000002   0.000000   0.173942  -0.062450  -0.056544  -0.029199
     7  H   -0.000000   0.000000  -0.000391   0.000358  -0.000212  -0.000180
     8  C   -0.111284   0.016386   0.000057  -0.000359   0.000322  -0.000040
     9  C    0.263839  -0.044608  -0.000019  -0.000338   0.000017  -0.000002
    10  C   -0.057285   0.372089   0.000009   0.000117  -0.000001   0.000002
    11  C    0.008199  -0.042401  -0.000352  -0.000741   0.000021  -0.000096
    12  S    0.007902   0.006321  -0.008014  -0.005357   0.003084  -0.002559
    13  O    8.438433   0.002010  -0.000000  -0.000000   0.000000  -0.000000
    14  H    0.002010   0.517620  -0.000000  -0.000000  -0.000000   0.000000
    15  C   -0.000000  -0.000000   4.984468   0.382899   0.382633   0.376450
    16  H   -0.000000  -0.000000   0.382899   0.588148  -0.049370  -0.040041
    17  H    0.000000  -0.000000   0.382633  -0.049370   0.591365  -0.042805
    18  H   -0.000000   0.000000   0.376450  -0.040041  -0.042805   0.544622
    19  C    0.164789  -0.000288   0.000000  -0.000001  -0.000000   0.000000
    20  H   -0.029506  -0.000155  -0.000000  -0.000000  -0.000000   0.000000
    21  H   -0.071425   0.000275   0.000001   0.000001  -0.000000  -0.000000
    22  H   -0.053956  -0.000081  -0.000000   0.000000   0.000000  -0.000000
    23  H   -0.000101  -0.005232  -0.000007   0.000005   0.000002  -0.000007
    24  H    0.000015   0.000000   0.000001  -0.000007   0.000015  -0.000001
              19         20         21         22         23         24
     1  C   -0.002658   0.000349  -0.010382   0.000715  -0.000336  -0.000535
     2  C    0.000197  -0.000016  -0.000566   0.000039   0.000007   0.006865
     3  C   -0.000206   0.000000   0.000112   0.000007   0.000000  -0.018486
     4  C    0.000303  -0.000177  -0.003035   0.000036  -0.000000   0.380476
     5  S   -0.071251  -0.000705  -0.036105   0.009639   0.000022  -0.024592
     6  O    0.000002   0.000000  -0.000003  -0.000000   0.000013  -0.000140
     7  H    0.000001   0.000000  -0.000007  -0.000000   0.000000  -0.005157
     8  C    0.002147  -0.000889   0.015012  -0.001014  -0.000705  -0.000316
     9  C   -0.048085   0.001389  -0.006804   0.003134   0.007245   0.000003
    10  C   -0.000583  -0.000136  -0.001461   0.003792  -0.021019   0.000000
    11  C    0.000234   0.000031   0.000065  -0.000356   0.382942   0.000000
    12  S    0.000360   0.000109  -0.001319  -0.000372  -0.024048   0.000024
    13  O    0.164789  -0.029506  -0.071425  -0.053956  -0.000101   0.000015
    14  H   -0.000288  -0.000155   0.000275  -0.000081  -0.005232   0.000000
    15  C    0.000000  -0.000000   0.000001  -0.000000  -0.000007   0.000001
    16  H   -0.000001  -0.000000   0.000001   0.000000   0.000005  -0.000007
    17  H   -0.000000  -0.000000  -0.000000   0.000000   0.000002   0.000015
    18  H    0.000000   0.000000  -0.000000  -0.000000  -0.000007  -0.000001
    19  C    5.070918   0.380786   0.387699   0.373023   0.000003  -0.000004
    20  H    0.380786   0.546500  -0.047471  -0.041117  -0.000000  -0.000015
    21  H    0.387699  -0.047471   0.620746  -0.045236  -0.000006   0.000006
    22  H    0.373023  -0.041117  -0.045236   0.587277   0.000004   0.000007
    23  H    0.000003  -0.000000  -0.000006   0.000004   0.465340   0.000000
    24  H   -0.000004  -0.000015   0.000006   0.000007   0.000000   0.467252
 Mulliken charges:
               1
     1  C   -0.345291
     2  C    0.420073
     3  C   -0.089624
     4  C   -0.451857
     5  S    0.381907
     6  O   -0.590016
     7  H    0.176427
     8  C   -0.371270
     9  C    0.426768
    10  C   -0.069553
    11  C   -0.463418
    12  S    0.400582
    13  O   -0.591232
    14  H    0.178638
    15  C   -0.242726
    16  H    0.181072
    17  H    0.167442
    18  H    0.193609
    19  C   -0.257387
    20  H    0.191024
    21  H    0.199903
    22  H    0.164460
    23  H    0.195879
    24  H    0.194589
 Sum of Mulliken charges =  -0.00000
 Mulliken charges with hydrogens summed into heavy atoms:
               1
     1  C   -0.345291
     2  C    0.420073
     3  C    0.086803
     4  C   -0.257268
     5  S    0.381907
     6  O   -0.590016
     8  C   -0.371270
     9  C    0.426768
    10  C    0.109085
    11  C   -0.267539
    12  S    0.400582
    13  O   -0.591232
    15  C    0.299397
    19  C    0.298000
 Electronic spatial extent (au):  <R**2>=           3279.9206
 Charge=             -0.0000 electrons
 Dipole moment (field-independent basis, Debye):
    X=             -0.5417    Y=              0.0499    Z=              0.0456  Tot=              0.5459
 Quadrupole moment (field-independent basis, Debye-Ang):
   XX=            -84.4163   YY=            -85.5416   ZZ=           -102.6165
   XY=              1.5216   XZ=             -1.3220   YZ=              6.1267
 Traceless Quadrupole moment (field-independent basis, Debye-Ang):
   XX=              6.4419   YY=              5.3165   ZZ=            -11.7584
   XY=              1.5216   XZ=             -1.3220   YZ=              6.1267
 Octapole moment (field-independent basis, Debye-Ang**2):
  XXX=             -2.2093  YYY=              1.5062  ZZZ=              0.3227  XYY=             -6.4513
  XXY=              6.3591  XXZ=              0.6781  XZZ=             -0.5029  YZZ=              0.3076
  YYZ=              1.0237  XYZ=             -0.8046
 Hexadecapole moment (field-independent basis, Debye-Ang**3):
 XXXX=          -2099.2099 YYYY=          -1712.9990 ZZZZ=           -201.6261 XXXY=             40.2308
 XXXZ=             38.8831 YYYX=            -47.7544 YYYZ=             21.7620 ZZZX=             -1.5635
 ZZZY=             -0.7997 XXYY=           -632.7720 XXZZ=           -457.8832 YYZZ=           -365.8958
 XXYZ=             23.0580 YYXZ=            -19.0018 ZZXY=            -19.1052
 N-N= 1.118790820571D+03 E-N=-5.385143566197D+03  KE= 1.331800187775D+03
 No NMR shielding tensors so no spin-rotation constants.
 Leave Link  601 at Thu Jan  9 11:39:07 2020, MaxMem=  1342177280 cpu:               1.4 elap:               0.4
 (Enter /apps/gaussian/g16-a03/l701.exe)
 ... and contract with generalized density number  0.
 Compute integral first derivatives.
 Leave Link  701 at Thu Jan  9 11:39:09 2020, MaxMem=  1342177280 cpu:               1.3 elap:               0.2
 (Enter /apps/gaussian/g16-a03/l702.exe)
 L702 exits ... SP integral derivatives will be done elsewhere.
 Leave Link  702 at Thu Jan  9 11:39:10 2020, MaxMem=  1342177280 cpu:               0.2 elap:               0.1
 (Enter /apps/gaussian/g16-a03/l703.exe)
 Integral derivatives from FoFJK, PRISM(SPDF).
 Compute integral first derivatives, UseDBF=F ICtDFT=           0.
 Calling FoFJK, ICntrl=      2127 FMM=F ISym2X=0 I1Cent= 0 IOpClX= 0 NMat=1 NMatS=1 NMatT=0.
 FoFJK:  IHMeth= 1 ICntrl=    2127 DoSepK=F KAlg= 0 I1Cent=           0 FoldK=F
 IRaf=         0 NMat=       1 IRICut=       1 DoRegI=T DoRafI=F ISym2E= 0 IDoP0=0 IntGTp=1.
 FoFCou: FMM=F IPFlag=           0 FMFlag=      100000 FMFlg1=         800
         NFxFlg=           0 DoJE=F BraDBF=F KetDBF=F FulRan=T
         wScrn=  0.000000 ICntrl=      2127 IOpCl=  0 I1Cent=           0 NGrid=           0
         NMat0=    1 NMatS0=      1 NMatT0=    0 NMatD0=    1 NMtDS0=    0 NMtDT0=    0
 Symmetry not used in FoFCou.
 Leave Link  703 at Thu Jan  9 11:39:18 2020, MaxMem=  1342177280 cpu:              42.4 elap:               5.6
 (Enter /apps/gaussian/g16-a03/l716.exe)
 Dipole        =-2.13120065D-01 1.96496237D-02 1.79260376D-02
 ***** Axes restored to original set *****
 -------------------------------------------------------------------
 Center     Atomic                   Forces (Hartrees/Bohr)
 Number     Number              X              Y              Z
 -------------------------------------------------------------------
      1        6          -0.038786228   -0.036628735   -0.057902326
      2        6           0.022598178    0.017641488   -0.019684021
      3        6           0.000021449    0.003733631    0.007587065
      4        6          -0.002275482    0.025043835   -0.008188620
      5       16           0.012558750   -0.009957191    0.019149382
      6        8          -0.071942147   -0.017979282    0.058401722
      7        1          -0.004181014    0.005145466    0.001312617
      8        6           0.032680129    0.039411813    0.049087701
      9        6          -0.014179124    0.003987484    0.027375801
     10        6           0.003537342   -0.008859271   -0.002837911
     11        6           0.003688401   -0.023100517    0.008612776
     12       16          -0.005091901    0.031467440   -0.023144998
     13        8           0.060709236   -0.020354863   -0.073552291
     14        1           0.004010212   -0.005967040   -0.001429099
     15        6           0.044720915    0.002717122   -0.017084025
     16        1           0.008539036   -0.003959185   -0.019775043
     17        1           0.011899642    0.016947930   -0.007887469
     18        1          -0.015988869    0.000098945    0.003502827
     19        6          -0.048045925    0.000188734    0.028997629
     20        1           0.014439222   -0.004512297   -0.005750045
     21        1          -0.006385121   -0.001694222    0.020095371
     22        1          -0.012962514   -0.013089489    0.012158474
     23        1          -0.008470088    0.005174010   -0.001039056
     24        1           0.008905898   -0.005455809    0.001993540
 -------------------------------------------------------------------
 Cartesian Forces:  Max     0.073552291 RMS     0.024632702
 Leave Link  716 at Thu Jan  9 11:39:20 2020, MaxMem=  1342177280 cpu:               0.2 elap:               0.1
 (Enter /apps/gaussian/g16-a03/l103.exe)

 GradGradGradGradGradGradGradGradGradGradGradGradGradGradGradGradGradGrad
 Berny optimization.
 FormGI is forming the generalized inverse of G from B-inverse, IUseBI=4.
 Internal  Forces:  Max     0.077394129 RMS     0.020685783
 Search for a local minimum.
 Step number   1 out of a maximum of  121
 All quantities printed in internal units (Hartrees-Bohrs-Radians)
 RMS Force = .20686D-01 SwitMx=.10000D-02 MixMth= 1
 Mixed Optimization -- RFO/linear search
 Second derivative matrix not updated -- first step.
 ITU=  0
     Eigenvalues ---    0.00238   0.01227   0.01231   0.01596   0.01597
     Eigenvalues ---    0.01900   0.01902   0.02115   0.02117   0.02124
     Eigenvalues ---    0.02124   0.02132   0.02144   0.02183   0.02185
     Eigenvalues ---    0.02301   0.02311   0.10238   0.10250   0.11008
     Eigenvalues ---    0.11010   0.15998   0.15999   0.16000   0.16000
     Eigenvalues ---    0.16000   0.16000   0.16000   0.16000   0.16000
     Eigenvalues ---    0.16000   0.22454   0.22458   0.24686   0.24699
     Eigenvalues ---    0.24856   0.24974   0.25000   0.25000   0.25000
     Eigenvalues ---    0.25000   0.28528   0.28580   0.28591   0.28795
     Eigenvalues ---    0.28814   0.37090   0.37150   0.37171   0.37204
     Eigenvalues ---    0.37213   0.37227   0.37245   0.37268   0.37270
     Eigenvalues ---    0.37347   0.40691   0.40706   0.48210   0.48316
     Eigenvalues ---    0.51361   0.51475   0.51488   0.51492   0.51585
     Eigenvalues ---    0.51612
 RFO step:  Lambda=-1.30492898D-01 EMin= 2.38172833D-03
 Linear search not attempted -- first point.
 Maximum step size (   0.300) exceeded in Quadratic search.
    -- Step size scaled by   0.580
 Iteration  1 RMS(Cart)=  0.23709442 RMS(Int)=  0.00888371
 Iteration  2 RMS(Cart)=  0.02803393 RMS(Int)=  0.00049222
 Iteration  3 RMS(Cart)=  0.00035623 RMS(Int)=  0.00047088
 Iteration  4 RMS(Cart)=  0.00000013 RMS(Int)=  0.00047088
 ITry= 1 IFail=0 DXMaxC= 1.02D+00 DCOld= 1.00D+10 DXMaxT= 3.00D-01 DXLimC= 3.00D+00 Rises=F
 Variable       Old X    -DE/DX   Delta X   Delta X   Delta X     New X
                                 (Linear)    (Quad)   (Total)
    R1        2.58015   0.02562   0.00000   0.02371   0.02378   2.60393
    R2        3.33278   0.02153   0.00000   0.03022   0.03026   3.36304
    R3        2.90999  -0.03562   0.00000  -0.04968  -0.04968   2.86031
    R4        2.68998   0.00806   0.00000   0.00869   0.00870   2.69868
    R5        2.58389  -0.00385   0.00000  -0.00346  -0.00346   2.58043
    R6        2.57789  -0.00233   0.00000  -0.00278  -0.00284   2.57506
    R7        2.02411   0.00568   0.00000   0.00657   0.00657   2.03068
    R8        3.33284   0.01572   0.00000   0.02054   0.02049   3.35333
    R9        2.02141   0.00333   0.00000   0.00383   0.00383   2.02524
   R10        2.58516   0.05396   0.00000   0.04858   0.04858   2.63374
   R11        2.57791   0.05458   0.00000   0.05038   0.05044   2.62835
   R12        3.33278   0.02304   0.00000   0.03305   0.03315   3.36593
   R13        2.69018   0.00802   0.00000   0.00895   0.00899   2.69917
   R14        2.58393   0.00496   0.00000   0.00446   0.00446   2.58839
   R15        2.57789  -0.00460   0.00000  -0.00558  -0.00563   2.57227
   R16        2.02205   0.00649   0.00000   0.00748   0.00748   2.02953
   R17        3.33354   0.01077   0.00000   0.01244   0.01230   3.34584
   R18        2.02320   0.00242   0.00000   0.00279   0.00279   2.02600
   R19        2.58273   0.06419   0.00000   0.05757   0.05757   2.64029
   R20        2.02226   0.01753   0.00000   0.02023   0.02023   2.04249
   R21        2.02240   0.01873   0.00000   0.02161   0.02161   2.04402
   R22        2.02143   0.01086   0.00000   0.01252   0.01252   2.03395
   R23        2.02288   0.01061   0.00000   0.01225   0.01225   2.03513
   R24        2.02027   0.00816   0.00000   0.00939   0.00939   2.02965
   R25        2.02179   0.01925   0.00000   0.02220   0.02220   2.04398
    A1        1.92799  -0.01373   0.00000  -0.01821  -0.01824   1.90975
    A2        2.17672  -0.01455   0.00000  -0.02350  -0.02355   2.15317
    A3        2.17846   0.02830   0.00000   0.04179   0.04173   2.22019
    A4        1.98061   0.00890   0.00000   0.01618   0.01614   1.99675
    A5        2.14894   0.00190   0.00000   0.00198   0.00196   2.15090
    A6        2.14960  -0.01047   0.00000  -0.01698  -0.01700   2.13260
    A7        1.98141  -0.00178   0.00000  -0.00314  -0.00330   1.97811
    A8        2.15024  -0.00045   0.00000  -0.00108  -0.00102   2.14922
    A9        2.15146   0.00226   0.00000   0.00432   0.00439   2.15584
   A10        1.92834   0.00492   0.00000   0.00648   0.00628   1.93461
   A11        2.17727   0.00610   0.00000   0.01383   0.01389   2.19116
   A12        2.17758  -0.01103   0.00000  -0.02037  -0.02030   2.15727
   A13        1.58517   0.00328   0.00000   0.00502   0.00492   1.59009
   A14        2.44003  -0.04681   0.00000  -0.07133  -0.07133   2.36870
   A15        2.17765   0.06739   0.00000   0.10025   0.09986   2.27750
   A16        2.17846  -0.05626   0.00000  -0.08820  -0.08841   2.09006
   A17        1.92707  -0.01117   0.00000  -0.01222  -0.01233   1.91473
   A18        1.98239  -0.00606   0.00000  -0.00526  -0.00529   1.97710
   A19        2.07438   0.07739   0.00000   0.11603   0.11603   2.19041
   A20        2.22569  -0.07133   0.00000  -0.11073  -0.11068   2.11501
   A21        1.98055   0.00722   0.00000   0.01030   0.01011   1.99066
   A22        2.15165  -0.00482   0.00000  -0.00752  -0.00752   2.14413
   A23        2.15092  -0.00234   0.00000  -0.00255  -0.00256   2.14836
   A24        1.92787   0.00813   0.00000   0.00835   0.00807   1.93594
   A25        2.17861   0.00393   0.00000   0.01177   0.01189   2.19050
   A26        2.17670  -0.01206   0.00000  -0.02015  -0.02003   2.15667
   A27        1.58558   0.00285   0.00000   0.00273   0.00274   1.58832
   A28        2.43283  -0.04244   0.00000  -0.06469  -0.06469   2.36815
   A29        1.86540   0.02164   0.00000   0.04396   0.04362   1.90902
   A30        1.86600   0.01938   0.00000   0.03931   0.03894   1.90495
   A31        1.99841  -0.02736   0.00000  -0.05615  -0.05591   1.94251
   A32        1.91091  -0.00744   0.00000  -0.01121  -0.01219   1.89872
   A33        1.91169  -0.00293   0.00000  -0.00727  -0.00699   1.90469
   A34        1.90948  -0.00229   0.00000  -0.00624  -0.00603   1.90346
   A35        1.99738  -0.02821   0.00000  -0.05774  -0.05747   1.93991
   A36        1.86724   0.03201   0.00000   0.06550   0.06523   1.93246
   A37        1.86609   0.01487   0.00000   0.02936   0.02877   1.89486
   A38        1.91116  -0.00379   0.00000  -0.00730  -0.00678   1.90439
   A39        1.90926  -0.00318   0.00000  -0.00948  -0.00949   1.89977
   A40        1.91083  -0.01078   0.00000  -0.01816  -0.01930   1.89153
    D1       -0.13096   0.00292   0.00000   0.01074   0.01075  -0.12022
    D2        2.91687   0.00622   0.00000   0.02353   0.02370   2.94058
    D3        3.00613   0.00693   0.00000   0.02756   0.02719   3.03332
    D4       -0.22922   0.01022   0.00000   0.04035   0.04015  -0.18907
    D5        0.17194  -0.00684   0.00000  -0.02388  -0.02370   0.14825
    D6       -2.96514  -0.01072   0.00000  -0.04051  -0.04073  -3.00587
    D7       -3.14158   0.00104   0.00000   0.00674   0.00679  -3.13479
    D8        0.00514   0.01241   0.00000   0.05235   0.05203   0.05717
    D9       -0.00512   0.00549   0.00000   0.02575   0.02607   0.02094
   D10        3.14159   0.01685   0.00000   0.07136   0.07132  -3.07028
   D11       -0.00075   0.00355   0.00000   0.01283   0.01271   0.01196
   D12       -3.12918   0.00144   0.00000   0.00432   0.00434  -3.12484
   D13       -3.04854  -0.00051   0.00000  -0.00113  -0.00123  -3.04978
   D14        0.10622  -0.00262   0.00000  -0.00964  -0.00961   0.09661
   D15       -1.52005  -0.00435   0.00000  -0.01555  -0.01550  -1.53555
   D16        1.51878   0.00037   0.00000   0.00035   0.00030   1.51908
   D17        0.13211  -0.00713   0.00000  -0.02851  -0.02846   0.10365
   D18       -3.00548  -0.00399   0.00000  -0.01486  -0.01464  -3.02012
   D19       -3.02266  -0.00504   0.00000  -0.02003  -0.02009  -3.04276
   D20        0.12293  -0.00190   0.00000  -0.00638  -0.00628   0.11666
   D21       -0.17242   0.00633   0.00000   0.02780   0.02798  -0.14444
   D22        2.96517   0.00324   0.00000   0.01424   0.01457   2.97974
   D23        1.02249   0.00548   0.00000   0.01280   0.01383   1.03632
   D24       -1.02253  -0.00632   0.00000  -0.01564  -0.01662  -1.03915
   D25       -3.14043  -0.00001   0.00000  -0.00041  -0.00046  -3.14089
   D26       -3.00554   0.01211   0.00000   0.04805   0.04983  -2.95572
   D27        0.17386   0.01367   0.00000   0.04964   0.05091   0.22477
   D28        0.13156   0.00199   0.00000   0.00784   0.00787   0.13943
   D29       -2.97222   0.00355   0.00000   0.00943   0.00895  -2.96327
   D30        2.96482  -0.00677   0.00000  -0.03038  -0.02734   2.93748
   D31       -0.17228   0.00296   0.00000   0.00926   0.00886  -0.16343
   D32        0.00018  -0.00774   0.00000  -0.02755  -0.02732  -0.02714
   D33        3.12989  -0.00221   0.00000  -0.00644  -0.00652   3.12338
   D34        3.10001  -0.00540   0.00000  -0.02309  -0.02257   3.07744
   D35       -0.05346   0.00014   0.00000  -0.00197  -0.00176  -0.05522
   D36        1.19226   0.03218   0.00000   0.12295   0.12303   1.31529
   D37       -1.90564   0.03170   0.00000   0.12118   0.12110  -1.78454
   D38       -0.13184   0.00824   0.00000   0.03185   0.03159  -0.10024
   D39        3.00622   0.00606   0.00000   0.02218   0.02209   3.02831
   D40        3.02163   0.00272   0.00000   0.01079   0.01077   3.03240
   D41       -0.12350   0.00055   0.00000   0.00112   0.00127  -0.12223
   D42        0.17251  -0.00484   0.00000  -0.02223  -0.02182   0.15069
   D43       -2.96555  -0.00271   0.00000  -0.01266  -0.01260  -2.97816
   D44        3.13997   0.00009   0.00000   0.00543   0.00585  -3.13736
   D45       -1.02294   0.00037   0.00000   0.00658   0.00524  -1.01770
   D46        1.02294   0.01130   0.00000   0.03291   0.03383   1.05677
         Item               Value     Threshold  Converged?
 Maximum Force            0.077394     0.000450     NO 
 RMS     Force            0.020686     0.000300     NO 
 Maximum Displacement     1.020124     0.001800     NO 
 RMS     Displacement     0.254909     0.001200     NO 
 Predicted change in Energy=-6.331878D-02
 Lowest energy point so far.  Saving SCF results.
 GradGradGradGradGradGradGradGradGradGradGradGradGradGradGradGradGradGrad

 Leave Link  103 at Thu Jan  9 11:39:20 2020, MaxMem=  1342177280 cpu:               0.3 elap:               0.1
 (Enter /apps/gaussian/g16-a03/l202.exe)
                          Input orientation:                          
 ---------------------------------------------------------------------
 Center     Atomic      Atomic             Coordinates (Angstroms)
 Number     Number       Type             X           Y           Z
 ---------------------------------------------------------------------
      1          6           0        9.551243    8.566802    4.973424
      2          6           0        9.230871    9.903074    4.871171
      3          6           0        9.785078   10.723186    5.900582
      4          6           0       10.546474   10.029157    6.792460
      5         16           0       10.738627    8.341249    6.279704
      6          8           0        8.526706   10.425944    3.824577
      7          1           0        9.612681   11.781901    5.964940
      8          6           0        8.965420    7.499118    4.074602
      9          6           0        9.174530    6.124275    4.050575
     10          6           0        8.620916    5.489144    2.897202
     11          6           0        7.966265    6.337048    2.057371
     12         16           0        7.866479    7.962696    2.751727
     13          8           0        9.799030    5.397461    5.029280
     14          1           0        8.707341    4.434236    2.715177
     15          6           0        8.841305   10.939548    2.567722
     16          1           0        9.347068   10.181312    1.986782
     17          1           0        9.503169   11.786808    2.686245
     18          1           0        7.956858   11.255307    2.041875
     19          6           0        9.459525    4.939393    6.304831
     20          1           0       10.272104    4.389957    6.749405
     21          1           0        9.197546    5.760174    6.946127
     22          1           0        8.601621    4.286256    6.219193
     23          1           0        7.568881    6.077642    1.096007
     24          1           0       10.966262   10.426311    7.695020
 ---------------------------------------------------------------------
                    Distance matrix (angstroms):
                    1          2          3          4          5
     1  C    0.000000
     2  C    1.377939   0.000000
     3  C    2.358876   1.428081   0.000000
     4  C    2.537293   2.331964   1.362661   0.000000
     5  S    1.779642   2.587777   2.593571   1.774507   0.000000
     6  O    2.413697   1.365504   2.445741   3.611818   3.907198
     7  H    3.365077   2.207284   1.074589   2.151481   3.633857
     8  C    1.513611   2.546368   3.794820   4.035787   2.952274
     9  C    2.638086   3.867283   4.994525   4.964702   3.511466
    10  C    3.827294   4.873538   6.145792   6.284308   4.905153
    11  C    3.998415   4.715214   6.108728   6.535305   5.434236
    12  S    2.852947   3.180986   4.606149   5.270688   4.564993
    13  O    3.179503   4.544045   5.396546   5.011994   3.333510
    14  H    4.784344   5.901744   7.131564   7.163084   5.665397
    15  C    3.452729   2.555762   3.470659   4.645946   4.912209
    16  H    3.401229   2.900107   3.975338   4.955427   4.873546
    17  H    3.949929   2.897672   3.397459   4.586809   5.129443
    18  H    4.285336   3.384755   4.302925   5.547757   5.847151
    19  C    3.865120   5.171633   5.807036   5.227326   3.634468
    20  H    4.595626   5.916619   6.408391   5.646034   4.006366
    21  H    3.448742   4.633592   5.105864   4.479669   3.079124
    22  H    4.558157   5.810487   6.552568   6.090320   4.584040
    23  H    5.015978   5.625656   7.041061   7.545203   6.483974
    24  H    3.587080   3.355515   2.168718   1.071713   2.530300
                    6          7          8          9         10
     6  O    0.000000
     7  H    2.756649   0.000000
     8  C    2.970067   4.725945   0.000000
     9  C    4.356043   5.988782   1.390862   0.000000
    10  C    5.024032   7.070602   2.354772   1.428338   0.000000
    11  C    4.489564   6.901175   2.533366   2.340521   1.361185
    12  S    2.766676   5.287749   1.781172   2.603420   2.590134
    13  O    5.325013   6.455328   2.454236   1.369716   2.437646
    14  H    6.096225   8.085096   3.362758   2.204038   1.073980
    15  C    1.393716   3.584086   3.758012   5.049430   5.464799
    16  H    2.027394   4.296298   3.420353   4.555059   4.834521
    17  H    2.025149   3.280527   4.538832   5.833840   6.362660
    18  H    2.047095   4.290628   4.388410   5.643146   5.866958
    19  C    6.092951   6.852657   3.430780   2.562584   3.552103
    20  H    6.930669   7.462644   4.304517   3.390606   4.332910
    21  H    5.653628   6.115249   3.365035   2.918445   4.098750
    22  H    6.590567   7.567799   3.879961   2.899903   3.533120
    23  H    5.222093   7.773172   3.583705   3.362998   2.167350
    24  H    4.575124   2.581275   5.067470   5.916063   7.272917
                   11         12         13         14         15
    11  C    0.000000
    12  S    1.770542   0.000000
    13  O    3.615812   3.937313   0.000000
    14  H    2.145366   3.627453   2.733982   0.000000
    15  C    4.712659   3.137800   6.139318   6.508362   0.000000
    16  H    4.085335   2.774804   5.687380   5.828266   1.080837
    17  H    5.697144   4.160153   6.811836   7.395573   1.081648
    18  H    4.918293   3.369473   6.828803   6.895185   1.076321
    19  C    4.714254   4.929777   1.397183   3.702240   7.095776
    20  H    5.578821   5.876472   2.048827   4.327290   7.901316
    21  H    5.074325   4.920959   2.041481   4.460868   6.791410
    22  H    4.682968   5.106855   2.021004   3.508732   7.593219
    23  H    1.072112   2.526540   4.572401   2.572661   5.236710
    24  H    7.583215   6.333577   5.810158   8.112122   5.573871
                   16         17         18         19         20
    16  H    0.000000
    17  H    1.758191   0.000000
    18  H    1.757608   1.757494   0.000000
    19  C    6.792342   7.744880   7.766697   0.000000
    20  H    7.555002   8.474310   8.640268   1.076945   0.000000
    21  H    6.645594   7.386496   7.469102   1.074046   1.752389
    22  H    7.295250   8.339832   8.150668   1.081629   1.755674
    23  H    4.560212   6.234172   5.277633   5.657030   6.489730
    24  H    5.938501   5.392534   6.457693   5.857402   6.149277
                   21         22         23         24
    21  H    0.000000
    22  H    1.748139   0.000000
    23  H    6.080891   5.524731   0.000000
    24  H    5.045992   6.743135   8.602330   0.000000
 Stoichiometry    C10H10O2S2
 Framework group  C1[X(C10H10O2S2)]
 Deg. of freedom    66
 Full point group                 C1      NOp   1
 RotChk:  IX=2 Diff= 3.31D-01
 Largest Abelian subgroup         C1      NOp   1
 Largest concise Abelian subgroup C1      NOp   1
                         Standard orientation:                         
 ---------------------------------------------------------------------
 Center     Atomic      Atomic             Coordinates (Angstroms)
 Number     Number       Type             X           Y           Z
 ---------------------------------------------------------------------
      1          6           0       -0.660025   -0.433566    0.014746
      2          6           0       -1.860308    0.183597   -0.263009
      3          6           0       -2.981245   -0.699998   -0.309674
      4          6           0       -2.656100   -1.998423   -0.054298
      5         16           0       -0.953049   -2.140672    0.423465
[...]
 4,-0.00274542,-0.00019767,0.00016439,0.00069207,-0.00018063,0.00004566
 ,0.00002932,-0.00002795,-0.00011939,0.00004595,-0.00024472,0.00001768,
 0.00001193,0.00004876,0.00002210,-0.00001749,-0.00007857,-0.00000501,0
 .00011499,0.00003067,0.00013395,-0.00011963,0.00025095,-0.00000888,-0.
 00001560,0.00001256,-0.27957923,-0.07130106,0.01991625,0.29931597,0.00
 024136,-0.00094291,0.00027449,-0.00360970,0.00238204,-0.00557703,0.000
 52397,0.00060182,0.00033827,0.00020530,-0.00018109,0.00039671,0.000345
 03,0.00011464,0.00009804,-0.02939330,-0.03084824,0.01037210,-0.0000982
 7,0.00016459,0.00043959,-0.00005377,0.00047782,0.00019163,-0.00017380,
 -0.00006660,-0.00034893,0.00000691,-0.00003563,0.00011438,0.00004548,-
 0.00006106,-0.00013358,0.00001398,0.00047046,0.00011908,0.00015572,-0.
 00018647,0.00035883,-0.00001097,-0.00003118,0.00003627,-0.06722536,-0.
 06994827,0.00533087,0.08225398,0.08751881,-0.00011212,0.00070856,-0.00
 029771,0.00256501,-0.00070129,0.00243208,0.00015041,-0.00003858,0.0003
 3646,-0.00044315,0.00019145,-0.00042251,-0.00006054,-0.00034595,0.0002
 7737,0.00756336,0.00951288,-0.00106114,0.00028220,-0.00011694,-0.00124
 000,0.00002516,-0.00031834,-0.00005232,0.00002257,0.00012957,0.0000201
 7,-0.00003165,0.00003371,-0.00008405,-0.00002002,-0.00010671,-0.000011
 14,-0.00002718,-0.00004063,0.00000215,-0.00000099,-0.00005693,-0.00000
 861,-0.00000466,0.00000095,-0.00000762,0.01799488,0.00368870,-0.055827
 64,-0.02180114,-0.00936376,0.05257426,-0.00014248,0.00010606,-0.000165
 92,0.00023174,0.00005735,0.00130423,0.00033311,0.00073022,0.00038561,-
 0.00006507,-0.00005351,-0.00048740,-0.00006710,-0.00028405,0.00004138,
 0.00463639,0.00011831,-0.00326046,-0.00079422,-0.00029294,-0.00031812,
 -0.00001162,-0.00015581,0.00001668,0.00004508,0.00006156,0.00006462,-0
 .00003173,0.00001149,-0.00006713,-0.00001084,-0.00009138,-0.00000124,0
 .00002387,0.00001207,-0.00000667,-0.00003220,-0.00002551,-0.00006055,-
 0.00000211,0.00000190,-0.00000390,-0.12088579,0.06784905,0.08633695,-0
 .01503996,0.01698588,0.02238270,0.12297816,-0.00009062,-0.00083372,0.0
 0049729,-0.00204213,0.00215431,-0.00667102,0.00002989,0.00037852,0.000
 48315,0.00018898,-0.00013313,0.00052137,-0.00002120,0.00023260,0.00035
 818,0.01550872,-0.03824515,-0.01207337,0.00055872,0.00023907,0.0001995
 1,0.00029405,0.00045376,0.00001009,-0.00022455,-0.00006509,-0.00038436
 ,0.00008886,-0.00004725,0.00009424,-0.00015694,-0.00001697,-0.00003856
 ,0.00020595,0.00045601,0.00002337,0.00017585,-0.00020028,0.00041056,0.
 00002952,-0.00004042,0.00001748,0.06700440,-0.11650648,-0.08698828,-0.
 00543660,0.00852149,0.00607309,-0.07608812,0.14127299,0.00016682,0.000
 85536,-0.00026951,-0.00013407,-0.00022801,0.00287946,-0.00014485,-0.00
 098483,0.00012733,0.00004788,0.00026508,-0.00029279,0.00037752,-0.0002
 1472,0.00028886,-0.00760954,0.01062718,0.00906124,-0.00079971,0.000637
 18,-0.00035683,-0.00014767,-0.00019138,0.00002886,-0.00004926,0.000119
 48,-0.00014593,-0.00000859,0.00003430,-0.00002305,-0.00005887,-0.00005
 987,-0.00002227,0.00002292,0.00000235,-0.00001210,0.00004671,-0.000099
 52,0.00017147,0.00000354,-0.00000989,-0.00000515,0.08727939,-0.0916158
 9,-0.16792320,-0.00068809,-0.00188046,-0.00112267,-0.09524457,0.097902
 67,0.17512551,0.00017248,0.00002667,-0.00008625,0.00097200,-0.00072838
 ,0.00105588,0.00010030,-0.00024901,-0.00018788,0.00014052,0.00000813,0
 .00005566,-0.00007239,0.00010011,-0.00000619,0.00100449,0.00008547,0.0
 0112510,-0.00021494,0.00024403,0.00019876,-0.00004736,-0.00001019,-0.0
 0005149,0.00000815,-0.00000461,0.00006170,0.00001090,-0.00000978,0.000
 00961,-0.00005571,0.00006412,0.00006497,0.00009751,0.00001918,-0.00003
 904,-0.00001851,0.00004609,-0.00005075,0.00001520,0.00000256,-0.000009
 17,-0.10970221,0.00185532,-0.11195584,-0.01282860,-0.00018786,-0.02851
 635,0.00886029,-0.00005280,0.01693988,0.11152504,0.00063828,0.00024061
 ,0.00123017,-0.00079558,-0.00562614,0.00032307,-0.00060325,-0.00086340
 ,-0.00083652,0.00014510,-0.00013122,0.00035495,0.00023453,-0.00005982,
 0.00044782,0.01769697,-0.01565362,0.03920712,0.00013230,0.00062679,-0.
 00004164,0.00014185,0.00011822,0.00023372,-0.00004103,0.00003712,-0.00
 009785,-0.00002061,0.00015740,-0.00008555,-0.00010090,-0.00025063,-0.0
 0014991,0.00004305,-0.00004876,0.00013299,0.00002742,-0.00000962,0.000
 05630,-0.00001619,0.00000211,-0.00002620,-0.00402340,-0.04379154,-0.01
 037885,-0.00334803,0.00197905,-0.00927283,-0.00893493,0.00230115,-0.01
 523987,-0.00118451,0.06095194,-0.00027163,0.00004299,-0.00032734,0.001
 07506,0.00045722,0.00249123,-0.00008079,-0.00014955,0.00012483,0.00001
 411,0.00008894,0.00011113,-0.00004693,0.00018671,-0.00023271,-0.004211
 16,0.00503353,-0.00928802,0.00023274,0.00017567,0.00004241,-0.00009748
 ,-0.00006126,-0.00018992,0.00007269,-0.00002717,0.00012647,0.00001288,
 -0.00006433,0.00005204,0.00011490,0.00017028,0.00007233,-0.00004625,0.
 00008654,-0.00000137,-0.00004503,0.00009252,-0.00011518,-0.00000350,0.
 00001026,0.00000964,-0.11017373,0.00102846,-0.26633045,0.00300147,-0.0
 0075407,0.00450777,-0.01092861,-0.00039479,-0.01750673,0.12139312,-0.0
 0587952,0.28642648,-0.00037141,0.00042351,0.00017306,-0.00003254,-0.00
 005802,-0.00008498,-0.00013691,-0.00010721,0.00009411,0.00008080,0.000
 04937,-0.00000505,0.00007284,0.00030113,0.00010759,-0.00002292,-0.0000
 1776,0.00008569,-0.00000335,-0.00001268,0.00004324,-0.00045421,-0.0015
 1543,-0.00192729,-0.00570822,0.01976467,-0.00752832,-0.00036210,0.0011
 7679,-0.00035050,-0.00043060,0.00070716,0.00035107,0.00124236,0.000051
 89,-0.00137573,-0.05732248,-0.01706196,-0.00615576,0.00019313,0.000366
 52,-0.00087891,0.00011492,-0.00000302,-0.00006843,-0.00000937,0.000015
 38,-0.00001339,-0.00000529,-0.00001696,0.00001575,0.00001025,-0.000003
 16,0.00000076,0.57334229,-0.00049455,-0.00021854,-0.00105453,0.0010766
 4,-0.00015413,0.00214257,-0.00017062,-0.00047319,-0.00023892,0.0005883
 6,0.00098737,0.00086466,-0.00046392,-0.00116466,-0.00055599,-0.0009537
 2,0.00120915,-0.00223702,0.00002018,0.00014987,-0.00001365,-0.00049261
 ,0.00092168,-0.00099960,0.00470800,-0.01461267,0.01208351,-0.00114106,
 0.00550389,-0.00399833,-0.00076812,-0.00036869,-0.00159913,-0.00187302
 ,0.00002580,-0.00305698,0.00176300,-0.18337439,0.04344736,-0.00040801,
 -0.00086104,-0.00035225,-0.00000279,-0.00126341,0.00042338,0.00013179,
 0.00018382,0.00003003,-0.00000350,0.00020991,0.00009489,-0.00004400,0.
 00004155,-0.00009485,0.00022029,0.42337918,0.00045089,0.00072856,0.000
 12831,-0.00042953,-0.00006034,-0.00079489,0.00011355,-0.00011576,0.000
 08711,-0.00016893,-0.00018024,-0.00019687,0.00034064,0.00092843,0.0003
 4868,0.00036963,-0.00042074,0.00078068,0.00003331,-0.00007729,0.000064
 40,-0.00223734,-0.00298752,-0.00266583,-0.00295781,0.04133129,-0.02320
 179,0.00035330,0.00050544,0.00016803,0.00079816,0.00126557,0.00044528,
 -0.00079102,0.00068241,0.00019885,-0.01186904,0.00687845,-0.07663288,-
 0.00064426,0.00114994,-0.00101174,-0.00006844,0.00042320,-0.00011063,-
 0.00003219,-0.00006966,-0.00000940,-0.00000487,-0.00005760,-0.00003957
 ,0.00001317,-0.00001560,0.00004062,0.02237151,0.04240498,0.59233497,-0
 .00004727,-0.00001015,-0.00005138,0.00000815,-0.00000456,0.00006165,0.
 00001089,-0.00000970,0.00000954,-0.00005565,0.00006399,0.00006488,0.00
 009745,0.00001898,-0.00003895,-0.00001854,0.00004609,-0.00005073,0.000
 01518,0.00000256,-0.00000919,0.00017263,0.00002675,-0.00008594,0.00097
 165,-0.00072957,0.00105619,0.00010051,-0.00024901,-0.00018797,0.000140
 52,0.00000801,0.00005565,-0.00007238,0.00009998,-0.00000604,0.00100838
 ,0.00008253,0.00113283,-0.00021531,0.00024398,0.00019859,0.00001025,-0
 .00004398,0.00001316,0.00000322,0.00000749,-0.00000018,-0.00000190,0.0
 0000953,0.00000426,-0.00000115,-0.00000086,-0.00000233,-0.10964072,0.0
 0187434,-0.11190876,0.11145839,0.00014191,0.00011812,0.00023364,-0.000
 04104,0.00003713,-0.00009787,-0.00002064,0.00015735,-0.00008551,-0.000
 10092,-0.00025062,-0.00014988,0.00004296,-0.00004871,0.00013302,0.0000
 2746,-0.00000965,0.00005632,-0.00001622,0.00000211,-0.00002617,0.00063
 779,0.00024069,0.00123052,-0.00079574,-0.00562610,0.00032191,-0.000602
 88,-0.00086355,-0.00083726,0.00014502,-0.00013120,0.00035501,0.0002343
 8,-0.00005981,0.00044803,0.01768502,-0.01566044,0.03921383,0.00013216,
 0.00062702,-0.00004154,-0.00000316,0.00004157,-0.00001560,-0.00000682,
 -0.00000804,0.00000332,0.00000474,-0.00001004,-0.00000292,-0.00000086,
 0.00000193,-0.00000220,-0.00400195,-0.04379341,-0.01034532,-0.00120107
 ,0.06095740,-0.00009748,-0.00006125,-0.00018989,0.00007272,-0.00002718
 ,0.00012651,0.00001290,-0.00006436,0.00005202,0.00011499,0.00017030,0.
 00007234,-0.00004625,0.00008647,-0.00000145,-0.00004510,0.00009256,-0.
 00011519,-0.00000348,0.00001026,0.00000964,-0.00027159,0.00004309,-0.0
 0032748,0.00107441,0.00045637,0.00249236,-0.00008092,-0.00014984,0.000
 12466,0.00001417,0.00008901,0.00011123,-0.00004685,0.00018680,-0.00023
 274,-0.00420708,0.00503529,-0.00928761,0.00023269,0.00017601,0.0000426
 3,0.00000079,-0.00009488,0.00004064,0.00001274,0.00001784,-0.00000139,
 -0.00000288,0.00001964,0.00000574,-0.00000233,-0.00000220,-0.00000367,
 -0.11012446,0.00106375,-0.26637547,0.12133961,-0.00591821,0.28647789,0
 .00004560,0.00002941,-0.00002793,-0.00011956,0.00004592,-0.00024489,0.
 00001769,0.00001190,0.00004883,0.00002201,-0.00001747,-0.00007855,-0.0
 0000496,0.00011507,0.00003064,0.00013414,-0.00011966,0.00025111,-0.000
 00887,-0.00001561,0.00001258,-0.00000467,0.00045313,0.00009692,0.00044
 829,0.00012448,-0.00064200,-0.00010029,-0.00112698,-0.00009244,0.00011
 319,0.00021000,0.00016436,0.00006175,0.00008366,0.00043454,0.00736163,
 -0.00275641,-0.00019362,0.00016391,0.00069211,-0.00017985,-0.00000939,
 0.00013185,-0.00003223,-0.00000961,-0.00001563,-0.00000443,-0.00000077
 ,-0.00001920,-0.00001225,0.00000322,-0.00000682,0.00001275,-0.27957929
 ,-0.07126028,0.01985646,-0.01282378,-0.00334381,0.00299601,0.29932405,
 -0.00005385,0.00047780,0.00019175,-0.00017399,-0.00006657,-0.00034893,
 0.00000693,-0.00003568,0.00011435,0.00004533,-0.00006099,-0.00013335,0
 .00001414,0.00047040,0.00011858,0.00015589,-0.00018648,0.00035892,-0.0
 0001094,-0.00003119,0.00003629,0.00024161,-0.00094312,0.00027428,-0.00
 360755,0.00238263,-0.00557825,0.00052386,0.00060190,0.00033845,0.00020
 511,-0.00018122,0.00039680,0.00034482,0.00011465,0.00009805,-0.0294056
 2,-0.03084901,0.01036535,-0.00009845,0.00016439,0.00043947,0.00001534,
 0.00018384,-0.00006970,-0.00001562,-0.00002235,-0.00001075,-0.00000371
 ,-0.00003600,-0.00001309,0.00000749,-0.00000803,0.00001784,-0.06718461
 ,-0.06992745,0.00531020,-0.00018375,0.00197997,-0.00075477,0.08221684,
 0.08750000,0.00002516,-0.00031833,-0.00005237,0.00002254,0.00012955,0.
 00002005,-0.00003166,0.00003373,-0.00008398,-0.00002008,-0.00010669,-0
 .00001121,-0.00002714,-0.00004054,0.00000223,-0.00000090,-0.00005699,-
 0.00000856,-0.00000467,0.00000095,-0.00000762,-0.00011201,0.00070878,-
 0.00029767,0.00256424,-0.00070174,0.00243227,0.00015009,-0.00003897,0.
 00033690,-0.00044298,0.00019151,-0.00042283,-0.00006046,-0.00034593,0.
 00027764,0.00756576,0.00951032,-0.00105741,0.00028325,-0.00011679,-0.0
 0123980,-0.00001340,0.00003008,-0.00000941,-0.00000443,-0.00001076,0.0
 0000414,0.00000410,-0.00000767,-0.00000164,-0.00000018,0.00000332,-0.0
 0000138,0.01793367,0.00366745,-0.05582025,-0.02852225,-0.00926927,0.00
 449995,-0.02173577,-0.00933852,0.05256545,-0.00001151,-0.00015571,0.00
 001662,0.00004509,0.00006153,0.00006461,-0.00003174,0.00001146,-0.0000
 6711,-0.00001087,-0.00009135,-0.00000123,0.00002389,0.00001202,-0.0000
 0666,-0.00003220,-0.00002553,-0.00006058,-0.00000211,0.00000189,-0.000
 00390,-0.00014250,0.00010563,-0.00016577,0.00023142,0.00005762,0.00130
 299,0.00033269,0.00073122,0.00038598,-0.00006483,-0.00005378,-0.000487
 25,-0.00006720,-0.00028398,0.00004123,0.00464192,0.00010994,-0.0032645
 7,-0.00079404,-0.00029312,-0.00031912,-0.00000530,-0.00000350,-0.00000
 486,-0.00000076,-0.00000371,0.00000410,0.00000232,-0.00000609,0.000000
 90,-0.00000190,0.00000474,-0.00000287,-0.12090418,0.06787101,0.0863380
 3,0.00885706,-0.00893139,-0.01092243,-0.01504545,0.01698878,0.02238172
 ,0.12300008,0.00029395,0.00045377,0.00001004,-0.00022473,-0.00006522,-
 0.00038433,0.00008890,-0.00004719,0.00009436,-0.00015715,-0.00001687,-
 0.00003858,0.00020619,0.00045559,0.00002343,0.00017602,-0.00020017,0.0
 0041049,0.00002952,-0.00004042,0.00001745,-0.00009050,-0.00083360,0.00
 049707,-0.00204041,0.00215537,-0.00667229,0.00002952,0.00037828,0.0004
 8314,0.00018876,-0.00013303,0.00052171,-0.00002133,0.00023274,0.000358
 28,0.01550725,-0.03824798,-0.01207441,0.00055910,0.00023940,0.00020004
 ,-0.00001698,0.00020986,-0.00005762,-0.00001919,-0.00003599,-0.0000076
 6,-0.00000608,-0.00002560,-0.00001746,0.00000953,-0.00001003,0.0000196
 3,0.06702460,-0.11652817,-0.08698412,-0.00005488,0.00230333,-0.0003918
 4,-0.00543427,0.00851917,0.00606838,-0.07610859,0.14129647,-0.00014759
 ,-0.00019138,0.00002889,-0.00004932,0.00011953,-0.00014596,-0.00000861
 ,0.00003432,-0.00002308,-0.00005895,-0.00005993,-0.00002224,0.00002295
 ,0.00000234,-0.00001207,0.00004681,-0.00009956,0.00017151,0.00000353,-
 0.00000990,-0.00000515,0.00016688,0.00085537,-0.00026926,-0.00013576,-
 0.00022781,0.00287871,-0.00014538,-0.00098469,0.00012670,0.00004811,0.
 00026543,-0.00029285,0.00037735,-0.00021484,0.00028883,-0.00760804,0.0
 1062358,0.00905989,-0.00080070,0.00063802,-0.00035792,0.00001573,0.000
 09491,-0.00003960,-0.00001224,-0.00001309,-0.00000163,0.00000090,-0.00
 001746,-0.00000452,0.00000426,-0.00000292,0.00000573,0.08728071,-0.091
 61313,-0.16788644,0.01694394,-0.01524387,-0.01750679,-0.00069142,-0.00
 187619,-0.00111797,-0.09524499,0.09790185,0.17508765,0.00172684,-0.000
 24367,-0.00092912,-0.00025620,-0.00000559,0.00018577,0.00019799,-0.000
 04632,-0.00008292,-0.00002760,0.00003023,0.00002309,0.00043169,-0.0000
 3661,-0.00020912,-0.00001051,-0.00005459,-0.00003968,0.00000144,-0.000
 00498,0.00000194,-0.00124235,0.00018808,0.00141303,0.00511612,0.000714
 53,-0.00319799,-0.00021341,-0.00588337,-0.00315345,-0.09749760,-0.0611
 4687,-0.12742072,-0.00125360,0.00197670,-0.00042485,0.00028155,-0.0003
 1793,-0.00060537,-0.00325544,0.00084277,0.00188456,-0.00004376,0.00001
 386,0.00000542,-0.00001260,-0.00003114,-0.00000025,-0.00000071,0.00002
 189,0.00000650,0.00001001,-0.00000092,-0.00000515,-0.00002922,-0.00019
 079,0.00006803,0.00001243,0.00001593,-0.00001501,0.00002372,0.00000303
 ,0.00004563,-0.00001918,0.00003884,-0.00001470,0.09627015,-0.00063734,
 0.00108618,-0.00088739,0.00028480,-0.00003572,0.00045731,-0.00001550,-
 0.00007093,0.00006655,-0.00003641,0.00021003,-0.00014785,-0.00021655,-
 0.00034924,-0.00014939,-0.00019572,-0.00045207,-0.00023749,-0.00000024
 ,-0.00001324,0.00000392,0.00027506,-0.00600045,0.00174878,0.00036018,-
 0.00113794,0.00306518,0.00826645,0.01080688,0.01348340,-0.06284832,-0.
 09983293,-0.09854825,-0.00969262,-0.00539206,-0.01759641,0.00030534,0.
 00087671,0.00052209,0.00014686,0.00064207,-0.00123213,-0.00007540,0.00
 003897,-0.00017280,-0.00000390,-0.00004916,0.00001249,0.00000021,-0.00
 005836,0.00000837,0.00000339,0.00000556,0.00000877,-0.00004333,0.00008
 847,-0.00012148,-0.00000010,-0.00001060,0.00000837,0.00000569,0.000002
 45,-0.00000436,0.00000072,-0.00000133,0.00001104,0.06408721,0.09971247
 ,-0.00080909,-0.00011843,0.00070816,0.00009825,-0.00010719,-0.00012756
 ,-0.00009207,0.00000623,0.00006724,0.00004354,-0.00001706,0.00004553,-
 0.00015511,0.00019944,0.00018324,0.00000256,0.00003706,0.00001212,0.00
 000053,-0.00000523,0.00000383,0.00138672,0.00157380,0.00021592,-0.0030
 8997,0.00375792,-0.00049004,-0.00745354,-0.01400117,-0.00789653,-0.126
 89811,-0.09524151,-0.23989402,0.00311490,0.00506689,0.00316948,-0.0007
 9451,-0.00068906,-0.00069184,0.00209620,0.00011978,-0.00032253,0.00003
 241,-0.00000025,0.00001431,0.00000616,0.00001864,-0.00000329,-0.000001
 56,-0.00000841,-0.00000595,-0.00000647,0.00000046,0.00000011,0.0000232
 0,-0.00040813,0.00013455,-0.00001014,0.00003957,-0.00001404,0.00002504
 ,0.00004459,-0.00000325,0.00001673,0.00003089,0.00004352,0.13235941,0.
 09970522,0.24491454,-0.00124135,0.00018379,0.00141448,0.00511449,0.000
 72007,-0.00319881,-0.00022137,-0.00588752,-0.00316244,-0.09756300,-0.0
 6117358,-0.12745837,-0.00125488,0.00197749,-0.00042640,0.00028112,-0.0
 0031867,-0.00060572,-0.00325370,0.00084361,0.00188554,0.00172709,-0.00
 024088,-0.00092944,-0.00025551,-0.00000623,0.00018690,0.00019813,-0.00
 004678,-0.00008247,-0.00002738,0.00003136,0.00002309,0.00043093,-0.000
 03729,-0.00020991,-0.00001108,-0.00005436,-0.00004076,0.00000145,-0.00
 000494,0.00000197,-0.00002911,-0.00019100,0.00006800,0.00002376,0.0000
 0303,0.00004566,-0.00001918,0.00003883,-0.00001460,0.00001240,0.000015
 95,-0.00001502,-0.00004378,0.00001340,0.00000550,0.00001000,-0.0000008
 9,-0.00000518,-0.00001256,-0.00003108,-0.00000024,-0.00000071,0.000021
 94,0.00000653,-0.00020977,0.00002952,0.00010492,0.09634401,0.00027497,
 -0.00600055,0.00174838,0.00036202,-0.00113896,0.00306418,0.00827164,0.
 01080676,0.01348118,-0.06287627,-0.09982246,-0.09852520,-0.00969738,-0
 .00539223,-0.01759431,0.00030555,0.00087688,0.00052202,0.00014659,0.00
 064175,-0.00123242,-0.00063828,0.00108575,-0.00088695,0.00028460,-0.00
 003558,0.00045684,-0.00001555,-0.00007087,0.00006655,-0.00003644,0.000
 20989,-0.00014785,-0.00021671,-0.00034910,-0.00014918,-0.00019571,-0.0
 0045177,-0.00023705,-0.00000025,-0.00001325,0.00000392,-0.00004341,0.0
 0008853,-0.00012146,0.00000566,0.00000244,-0.00000439,0.00000072,-0.00
 000132,0.00001104,-0.00000010,-0.00001060,0.00000837,-0.00007523,0.000
 03904,-0.00017280,0.00000339,0.00000554,0.00000878,-0.00000391,-0.0000
 4913,0.00001248,0.00000020,-0.00005837,0.00000835,0.00002970,-0.000065
 76,-0.00000404,0.06411421,0.09970338,0.00138680,0.00157608,0.00021482,
 -0.00309075,0.00375499,-0.00048889,-0.00745085,-0.01399783,-0.00788755
 ,-0.12695023,-0.09522149,-0.23984395,0.00311828,0.00506668,0.00316948,
 -0.00079525,-0.00068864,-0.00069073,0.00209655,0.00011919,-0.00032387,
 -0.00080960,-0.00011975,0.00070843,0.00009804,-0.00010690,-0.00012818,
 -0.00009216,0.00000646,0.00006703,0.00004347,-0.00001763,0.00004553,-0
 .00015486,0.00019983,0.00018374,0.00000279,0.00003699,0.00001267,0.000
 00051,-0.00000525,0.00000382,0.00002336,-0.00040790,0.00013450,0.00002
 501,0.00004458,-0.00000327,0.00001673,0.00003088,0.00004344,-0.0000101
 5,0.00003955,-0.00001402,0.00003245,-0.00000005,0.00001428,-0.00000647
 ,0.00000044,0.00000012,0.00000615,0.00001863,-0.00000330,-0.00000156,-
 0.00000844,-0.00000596,0.00010494,-0.00000396,-0.00006349,0.13240681,0
 .09968355,0.24485535\\0.00000767,-0.00002504,0.00002396,0.00000733,0.0
 0001527,-0.00000709,-0.00002385,-0.00000227,-0.00001133,0.00001527,-0.
 00000906,0.00000729,-0.00000795,0.00000635,-0.00001252,-0.00000126,-0.
 00002126,0.00001098,0.00000657,-0.00000299,0.00000088,0.00001108,0.000
 01009,0.00003245,-0.00001348,0.00001040,-0.00003702,0.00000901,-0.0000
 0576,0.00002037,0.00000612,0.00000803,-0.00000457,-0.00001300,0.000002
 73,-0.00002361,0.00000410,-0.00000980,0.00001744,-0.00000185,-0.000000
 05,-0.00000350,0.00001486,0.00002753,-0.00002187,-0.00000548,-0.000004
 54,0.00000285,-0.00000611,-0.00000022,0.00000425,-0.00000493,-0.000001
 24,0.00000199,-0.00000658,-0.00000087,-0.00000096,0.00000544,0.0000020
 2,0.00000083,-0.00000055,0.00000310,-0.00000190,0.00000160,-0.00000007
 ,-0.00000091,-0.00000152,-0.00000468,0.00000180,-0.00000247,0.00000234
 ,0.00000019\\\@


 SEE YOU NOW,
 YOUR BAIT OF FALSEHOOD TAKES THIS CARP OF TRUTH.
 AND THUS DO WE OF WISDOM AND OF REACH...
 BY INDIRECTIONS FIND DIRECTIONS OUT.    -- HAMLET, II, 1
 Job cpu time:       0 days  0 hours 34 minutes 31.5 seconds.
 Elapsed time:       0 days  0 hours  4 minutes 19.5 seconds.
 File lengths (MBytes):  RWF=    175 Int=      0 D2E=      0 Chk=      6 Scr=      1
 Normal termination of Gaussian 16 at Thu Jan  9 11:56:50 2020.
