 Entering Gaussian System, Link 0=g16
 Input=OBT_2m_opt_freq.gjf
 Output=OBT_2m_opt_freq.log
 Initial command:
 /apps/gaussian/g16-a03/l1.exe "/tmp/pbs.945609.pbs/Gau-38649.inp" -scrdir="/tmp/pbs.945609.pbs/"
 Entering Link 1 = /apps/gaussian/g16-a03/l1.exe PID=     38650.
  
 Copyright (c) 1988,1990,1992,1993,1995,1998,2003,2009,2016,
            Gaussian, Inc.  All Rights Reserved.
  
 This is part of the Gaussian(R) 16 program.  It is based on
 the Gaussian(R) 09 system (copyright 2009, Gaussian, Inc.),
 the Gaussian(R) 03 system (copyright 2003, Gaussian, Inc.),
 the Gaussian(R) 98 system (copyright 1998, Gaussian, Inc.),
 the Gaussian(R) 94 system (copyright 1995, Gaussian, Inc.),
 the Gaussian 92(TM) system (copyright 1992, Gaussian, Inc.),
 the Gaussian 90(TM) system (copyright 1990, Gaussian, Inc.),
 the Gaussian 88(TM) system (copyright 1988, Gaussian, Inc.),
 the Gaussian 86(TM) system (copyright 1986, Carnegie Mellon
 University), and the Gaussian 82(TM) system (copyright 1983,
 Carnegie Mellon University). Gaussian is a federally registered
 trademark of Gaussian, Inc.
  
 This software contains proprietary and confidential information,
 including trade secrets, belonging to Gaussian, Inc.
  
 This software is provided under written license and may be
 used, copied, transmitted, or stored only in accord with that
 written license.
  
 The following legend is applicable only to US Government
 contracts under FAR:
  
                    RESTRICTED RIGHTS LEGEND
  
 Use, reproduction and disclosure by the US Government is
 subject to restrictions as set forth in subparagraphs (a)
 and (c) of the Commercial Computer Software - Restricted
 Rights clause in FAR 52.227-19.
  
 Gaussian, Inc.
 340 Quinnipiac St., Bldg. 40, Wallingford CT 06492
  
  
 ---------------------------------------------------------------
 Warning -- This program may not be used in any manner that
 competes with the business of Gaussian, Inc. or will provide
 assistance to any competitor of Gaussian, Inc.  The licensee
 of this program is prohibited from giving any competitor of
 Gaussian, Inc. access to this program.  By using this program,
 the user acknowledges that Gaussian, Inc. is engaged in the
 business of creating and licensing software in the field of
 computational chemistry and represents and warrants to the
 licensee that it is not a competitor of Gaussian, Inc. and that
 it will not use this program in any manner prohibited above.
 ---------------------------------------------------------------
  

 Cite this work as:
 Gaussian 16, Revision A.03,
 M. J. Frisch, G. W. Trucks, H. B. Schlegel, G. E. Scuseria, 
 M. A. Robb, J. R. Cheeseman, G. Scalmani, V. Barone, 
 G. A. Petersson, H. Nakatsuji, X. Li, M. Caricato, A. V. Marenich, 
 J. Bloino, B. G. Janesko, R. Gomperts, B. Mennucci, H. P. Hratchian, 
 J. V. Ortiz, A. F. Izmaylov, J. L. Sonnenberg, D. Williams-Young, 
 F. Ding, F. Lipparini, F. Egidi, J. Goings, B. Peng, A. Petrone, 
 T. Henderson, D. Ranasinghe, V. G. Zakrzewski, J. Gao, N. Rega, 
 G. Zheng, W. Liang, M. Hada, M. Ehara, K. Toyota, R. Fukuda, 
 J. Hasegawa, M. Ishida, T. Nakajima, Y. Honda, O. Kitao, H. Nakai, 
 T. Vreven, K. Throssell, J. A. Montgomery, Jr., J. E. Peralta, 
 F. Ogliaro, M. J. Bearpark, J. J. Heyd, E. N. Brothers, K. N. Kudin, 
 V. N. Staroverov, T. A. Keith, R. Kobayashi, J. Normand, 
 K. Raghavachari, A. P. Rendell, J. C. Burant, S. S. Iyengar, 
 J. Tomasi, M. Cossi, J. M. Millam, M. Klene, C. Adamo, R. Cammi, 
 J. W. Ochterski, R. L. Martin, K. Morokuma, O. Farkas, 
 J. B. Foresman, and D. J. Fox, Gaussian, Inc., Wallingford CT, 2016.
 
 ******************************************
 Gaussian 16:  ES64L-G16RevA.03 25-Dec-2016
                10-Jan-2020 
 ******************************************
 %mem=50GB
 %nprocshared=8
 Will use up to    8 processors via shared memory.
 ------------------------------
 #p opt freq=Raman b3lyp/6-311g
 ------------------------------
 1/18=20,19=15,26=3,38=1/1,3;
 2/9=110,12=2,17=6,18=5,40=1/2;
 3/5=4,6=6,11=2,25=1,30=1,71=1,74=-5/1,2,3;
 4//1;
 5/5=2,38=5/2;
 6/7=2,8=2,9=2,10=2,28=1/1;
 7//1,2,3,16;
 1/18=20,19=15,26=3/3(2);
 2/9=110/2;
 99//99;
 2/9=110/2;
 3/5=4,6=6,11=2,25=1,30=1,71=1,74=-5/1,2,3;
 4/5=5,16=3,69=1/1;
 5/5=2,38=5/2;
 7//1,2,3,16;
 1/18=20,19=15,26=3/3(-5);
 2/9=110/2;
 6/7=2,8=2,9=2,10=2,19=2,28=1/1;
 99/9=1/99;
 Leave Link    1 at Fri Jan 10 10:35:19 2020, MaxMem=  6710886400 cpu:               0.2 elap:               0.0
 (Enter /apps/gaussian/g16-a03/l101.exe)
 -------------------
 OBT_2m_opt_freq.gjf
 -------------------
 Symbolic Z-matrix:
 Charge =  0 Multiplicity = 1
 C                     11.50291  -4.49717   0. 
 C                     11.14671  -5.83276   0. 
 C                     12.2355  -6.76182   0. 
 C                     13.45591  -6.16043   0. 
 S                     13.33241  -4.36781   0. 
 O                     9.79613  -6.1691    0. 
 H                     12.10824  -7.83305   0. 
 C                     10.66192  -3.34031   0. 
 C                     11.01812  -2.00471   0. 
 C                     9.92933  -1.07565   0. 
 C                     8.70892  -1.67705   0. 
 S                     8.83245  -3.47067   0. 
 O                     12.36868  -1.66738   0. 
 H                     10.05659  -0.00442   0. 
 C                     9.42653  -7.57402   0. 
 H                     9.79631  -8.0786    0.894 
 H                     9.79731  -8.07858  -0.895 
 H                     8.34138  -7.58013  -0.001 
 C                     12.7383  -0.26345   0. 
 H                     13.82342  -0.25635   0. 
 H                     12.36753   0.24111  -0.895 
 H                     12.36753   0.24111   0.894 
 H                     14.42873  -6.61705   0.001 
 C                     6.36861   1.69477   0. 
 C                     5.6637    0.50574   0. 
 C                     6.45988  -0.68368   0. 
 C                     7.79762  -0.43562   0. 
 S                     8.16467   1.32336   0. 
 O                     4.27252   0.5481    0. 
 H                     6.04701  -1.68031   0. 
 C                     5.8727    3.03628   0. 
 C                     6.57761   4.22532   0. 
 C                     5.78144   5.41473   0. 
 C                     4.44369   5.16668   0. 
 S                     4.07639   3.40673   0. 
 O                     7.96904   4.18392   0. 
 H                     6.19431   6.41136   0. 
 C                     3.53592  -0.70403   0. 
 H                     3.75507  -1.28996   0.894 
 H                     3.75604  -1.2902   -0.895 
 H                     2.48975  -0.41575  -0.001 
 C                     8.70539   5.43509   0. 
 H                     9.75182   5.14778   0. 
 H                     8.48528   6.02126  -0.895 
 H                     8.48528   6.02126   0.894 
 H                     3.63107   5.86991   0.001 
 
 ITRead=  0  0  0  0  0  0  0  0  0  0  0  0  0  0  0  0  0  0  0  0
 ITRead=  0  0  0  0  0  0  0  0  0  0  0  0  0  0  0  0  0  0  0  0
 ITRead=  0  0  0  0  0  0
 MicOpt= -1 -1 -1 -1 -1 -1 -1 -1 -1 -1 -1 -1 -1 -1 -1 -1 -1 -1 -1 -1
 MicOpt= -1 -1 -1 -1 -1 -1 -1 -1 -1 -1 -1 -1 -1 -1 -1 -1 -1 -1 -1 -1
 MicOpt= -1 -1 -1 -1 -1 -1
 NAtoms=     46 NQM=       46 NQMF=       0 NMMI=      0 NMMIF=      0
                NMic=       0 NMicF=      0.
                    Isotopes and Nuclear Properties:
 (Nuclear quadrupole moments (NQMom) in fm**2, nuclear magnetic moments (NMagM)
  in nuclear magnetons)

  Atom         1           2           3           4           5           6           7           8           9          10
 IAtWgt=          12          12          12          12          32          16           1          12          12          12
 AtmWgt=  12.0000000  12.0000000  12.0000000  12.0000000  31.9720718  15.9949146   1.0078250  12.0000000  12.0000000  12.0000000
 NucSpn=           0           0           0           0           0           0           1           0           0           0
 AtZEff=  -0.0000000  -0.0000000  -0.0000000  -0.0000000  -0.0000000  -0.0000000  -0.0000000  -0.0000000  -0.0000000  -0.0000000
 NQMom=    0.0000000   0.0000000   0.0000000   0.0000000   0.0000000   0.0000000   0.0000000   0.0000000   0.0000000   0.0000000
 NMagM=    0.0000000   0.0000000   0.0000000   0.0000000   0.0000000   0.0000000   2.7928460   0.0000000   0.0000000   0.0000000
 AtZNuc=   6.0000000   6.0000000   6.0000000   6.0000000  16.0000000   8.0000000   1.0000000   6.0000000   6.0000000   6.0000000

  Atom        11          12          13          14          15          16          17          18          19          20
 IAtWgt=          12          32          16           1          12           1           1           1          12           1
 AtmWgt=  12.0000000  31.9720718  15.9949146   1.0078250  12.0000000   1.0078250   1.0078250   1.0078250  12.0000000   1.0078250
 NucSpn=           0           0           0           1           0           1           1           1           0           1
 AtZEff=  -0.0000000  -0.0000000  -0.0000000  -0.0000000  -0.0000000  -0.0000000  -0.0000000  -0.0000000  -0.0000000  -0.0000000
 NQMom=    0.0000000   0.0000000   0.0000000   0.0000000   0.0000000   0.0000000   0.0000000   0.0000000   0.0000000   0.0000000
 NMagM=    0.0000000   0.0000000   0.0000000   2.7928460   0.0000000   2.7928460   2.7928460   2.7928460   0.0000000   2.7928460
 AtZNuc=   6.0000000  16.0000000   8.0000000   1.0000000   6.0000000   1.0000000   1.0000000   1.0000000   6.0000000   1.0000000

  Atom        21          22          23          24          25          26          27          28          29          30
 IAtWgt=           1           1           1          12          12          12          12          32          16           1
 AtmWgt=   1.0078250   1.0078250   1.0078250  12.0000000  12.0000000  12.0000000  12.0000000  31.9720718  15.9949146   1.0078250
 NucSpn=           1           1           1           0           0           0           0           0           0           1
 AtZEff=  -0.0000000  -0.0000000  -0.0000000  -0.0000000  -0.0000000  -0.0000000  -0.0000000  -0.0000000  -0.0000000  -0.0000000
 NQMom=    0.0000000   0.0000000   0.0000000   0.0000000   0.0000000   0.0000000   0.0000000   0.0000000   0.0000000   0.0000000
 NMagM=    2.7928460   2.7928460   2.7928460   0.0000000   0.0000000   0.0000000   0.0000000   0.0000000   0.0000000   2.7928460
 AtZNuc=   1.0000000   1.0000000   1.0000000   6.0000000   6.0000000   6.0000000   6.0000000  16.0000000   8.0000000   1.0000000

  Atom        31          32          33          34          35          36          37          38          39          40
 IAtWgt=          12          12          12          12          32          16           1          12           1           1
 AtmWgt=  12.0000000  12.0000000  12.0000000  12.0000000  31.9720718  15.9949146   1.0078250  12.0000000   1.0078250   1.0078250
 NucSpn=           0           0           0           0           0           0           1           0           1           1
 AtZEff=  -0.0000000  -0.0000000  -0.0000000  -0.0000000  -0.0000000  -0.0000000  -0.0000000  -0.0000000  -0.0000000  -0.0000000
 NQMom=    0.0000000   0.0000000   0.0000000   0.0000000   0.0000000   0.0000000   0.0000000   0.0000000   0.0000000   0.0000000
 NMagM=    0.0000000   0.0000000   0.0000000   0.0000000   0.0000000   0.0000000   2.7928460   0.0000000   2.7928460   2.7928460
 AtZNuc=   6.0000000   6.0000000   6.0000000   6.0000000  16.0000000   8.0000000   1.0000000   6.0000000   1.0000000   1.0000000

  Atom        41          42          43          44          45          46
 IAtWgt=           1          12           1           1           1           1
 AtmWgt=   1.0078250  12.0000000   1.0078250   1.0078250   1.0078250   1.0078250
 NucSpn=           1           0           1           1           1           1
 AtZEff=  -0.0000000  -0.0000000  -0.0000000  -0.0000000  -0.0000000  -0.0000000
 NQMom=    0.0000000   0.0000000   0.0000000   0.0000000   0.0000000   0.0000000
 NMagM=    2.7928460   0.0000000   2.7928460   2.7928460   2.7928460   2.7928460
 AtZNuc=   1.0000000   6.0000000   1.0000000   1.0000000   1.0000000   1.0000000
 Leave Link  101 at Fri Jan 10 10:35:19 2020, MaxMem=  6710886400 cpu:               3.8 elap:               0.5
 (Enter /apps/gaussian/g16-a03/l103.exe)

 GradGradGradGradGradGradGradGradGradGradGradGradGradGradGradGradGradGrad
 Berny optimization.
 Initialization pass.
                           ----------------------------
                           !    Initial Parameters    !
                           ! (Angstroms and Degrees)  !
 --------------------------                            --------------------------
 ! Name  Definition              Value          Derivative Info.                !
 --------------------------------------------------------------------------------
 ! R1    R(1,2)                  1.3823         estimate D2E/DX2                !
 ! R2    R(1,5)                  1.8341         estimate D2E/DX2                !
 ! R3    R(1,8)                  1.4302         estimate D2E/DX2                !
 ! R4    R(2,3)                  1.4313         estimate D2E/DX2                !
 ! R5    R(2,6)                  1.3918         estimate D2E/DX2                !
 ! R6    R(3,4)                  1.3605         estimate D2E/DX2                !
 ! R7    R(3,7)                  1.0788         estimate D2E/DX2                !
 ! R8    R(4,5)                  1.7969         estimate D2E/DX2                !
 ! R9    R(4,23)                 1.0747         estimate D2E/DX2                !
 ! R10   R(6,15)                 1.4527         estimate D2E/DX2                !
 ! R11   R(8,9)                  1.3823         estimate D2E/DX2                !
 ! R12   R(8,12)                 1.8341         estimate D2E/DX2                !
 ! R13   R(9,10)                 1.4313         estimate D2E/DX2                !
 ! R14   R(9,13)                 1.392          estimate D2E/DX2                !
 ! R15   R(10,11)                1.3605         estimate D2E/DX2                !
 ! R16   R(10,14)                1.0788         estimate D2E/DX2                !
 ! R17   R(11,12)                1.7979         estimate D2E/DX2                !
 ! R18   R(11,27)                1.54           estimate D2E/DX2                !
 ! R19   R(13,19)                1.4518         estimate D2E/DX2                !
 ! R20   R(15,16)                1.0911         estimate D2E/DX2                !
 ! R21   R(15,17)                1.0923         estimate D2E/DX2                !
 ! R22   R(15,18)                1.0852         estimate D2E/DX2                !
 ! R23   R(19,20)                1.0851         estimate D2E/DX2                !
 ! R24   R(19,21)                1.0923         estimate D2E/DX2                !
 ! R25   R(19,22)                1.0915         estimate D2E/DX2                !
 ! R26   R(24,25)                1.3823         estimate D2E/DX2                !
 ! R27   R(24,28)                1.8341         estimate D2E/DX2                !
 ! R28   R(24,31)                1.4302         estimate D2E/DX2                !
 ! R29   R(25,26)                1.4313         estimate D2E/DX2                !
 ! R30   R(25,29)                1.3918         estimate D2E/DX2                !
 ! R31   R(26,27)                1.3605         estimate D2E/DX2                !
 ! R32   R(26,30)                1.0788         estimate D2E/DX2                !
 ! R33   R(27,28)                1.7969         estimate D2E/DX2                !
 ! R34   R(29,38)                1.4527         estimate D2E/DX2                !
 ! R35   R(31,32)                1.3823         estimate D2E/DX2                !
 ! R36   R(31,35)                1.8341         estimate D2E/DX2                !
 ! R37   R(32,33)                1.4313         estimate D2E/DX2                !
 ! R38   R(32,36)                1.392          estimate D2E/DX2                !
 ! R39   R(33,34)                1.3605         estimate D2E/DX2                !
 ! R40   R(33,37)                1.0788         estimate D2E/DX2                !
 ! R41   R(34,35)                1.7979         estimate D2E/DX2                !
 ! R42   R(34,46)                1.0747         estimate D2E/DX2                !
 ! R43   R(36,42)                1.4518         estimate D2E/DX2                !
 ! R44   R(38,39)                1.0911         estimate D2E/DX2                !
 ! R45   R(38,40)                1.0923         estimate D2E/DX2                !
 ! R46   R(38,41)                1.0852         estimate D2E/DX2                !
 ! R47   R(42,43)                1.0851         estimate D2E/DX2                !
 ! R48   R(42,44)                1.0923         estimate D2E/DX2                !
 ! R49   R(42,45)                1.0915         estimate D2E/DX2                !
 ! A1    A(2,1,5)              108.9774         estimate D2E/DX2                !
 ! A2    A(2,1,8)              129.0514         estimate D2E/DX2                !
 ! A3    A(5,1,8)              121.9712         estimate D2E/DX2                !
 ! A4    A(1,2,3)              115.5412         estimate D2E/DX2                !
 ! A5    A(1,2,6)              118.9168         estimate D2E/DX2                !
 ! A6    A(3,2,6)              125.5419         estimate D2E/DX2                !
 ! A7    A(2,3,4)              113.2927         estimate D2E/DX2                !
 ! A8    A(2,3,7)              123.6997         estimate D2E/DX2                !
 ! A9    A(4,3,7)              123.0076         estimate D2E/DX2                !
 ! A10   A(3,4,5)              112.2919         estimate D2E/DX2                !
 ! A11   A(3,4,23)             128.6228         estimate D2E/DX2                !
 ! A12   A(5,4,23)             119.0853         estimate D2E/DX2                !
 ! A13   A(1,5,4)               89.8967         estimate D2E/DX2                !
 ! A14   A(2,6,15)             118.7229         estimate D2E/DX2                !
 ! A15   A(1,8,9)              129.0514         estimate D2E/DX2                !
 ! A16   A(1,8,12)             121.94           estimate D2E/DX2                !
 ! A17   A(9,8,12)             109.0086         estimate D2E/DX2                !
 ! A18   A(8,9,10)             115.5412         estimate D2E/DX2                !
 ! A19   A(8,9,13)             118.957          estimate D2E/DX2                !
 ! A20   A(10,9,13)            125.5018         estimate D2E/DX2                !
 ! A21   A(9,10,11)            113.2927         estimate D2E/DX2                !
 ! A22   A(9,10,14)            123.6997         estimate D2E/DX2                !
 ! A23   A(11,10,14)           123.0076         estimate D2E/DX2                !
 ! A24   A(10,11,12)           112.2934         estimate D2E/DX2                !
 ! A25   A(10,11,27)           100.0485         estimate D2E/DX2                !
 ! A26   A(12,11,27)           147.6581         estimate D2E/DX2                !
 ! A27   A(8,12,11)             89.8641         estimate D2E/DX2                !
 ! A28   A(9,13,19)            118.774          estimate D2E/DX2                !
 ! A29   A(6,15,16)            111.1618         estimate D2E/DX2                !
 ! A30   A(6,15,17)            111.1229         estimate D2E/DX2                !
 ! A31   A(6,15,18)            105.0613         estimate D2E/DX2                !
 ! A32   A(16,15,17)           110.0416         estimate D2E/DX2                !
 ! A33   A(16,15,18)           109.6964         estimate D2E/DX2                !
 ! A34   A(17,15,18)           109.6387         estimate D2E/DX2                !
 ! A35   A(13,19,20)           105.1251         estimate D2E/DX2                !
 ! A36   A(13,19,21)           111.1177         estimate D2E/DX2                !
 ! A37   A(13,19,22)           111.1343         estimate D2E/DX2                !
 ! A38   A(20,19,21)           109.6586         estimate D2E/DX2                !
 ! A39   A(20,19,22)           109.674          estimate D2E/DX2                !
 ! A40   A(21,19,22)           110.0169         estimate D2E/DX2                !
 ! A41   A(25,24,28)           108.9774         estimate D2E/DX2                !
 ! A42   A(25,24,31)           129.0514         estimate D2E/DX2                !
 ! A43   A(28,24,31)           121.9712         estimate D2E/DX2                !
 ! A44   A(24,25,26)           115.5412         estimate D2E/DX2                !
 ! A45   A(24,25,29)           118.9168         estimate D2E/DX2                !
 ! A46   A(26,25,29)           125.5419         estimate D2E/DX2                !
 ! A47   A(25,26,27)           113.2927         estimate D2E/DX2                !
 ! A48   A(25,26,30)           123.6997         estimate D2E/DX2                !
 ! A49   A(27,26,30)           123.0076         estimate D2E/DX2                !
 ! A50   A(11,27,26)           115.7767         estimate D2E/DX2                !
 ! A51   A(11,27,28)           131.9314         estimate D2E/DX2                !
 ! A52   A(26,27,28)           112.2919         estimate D2E/DX2                !
 ! A53   A(24,28,27)            89.8967         estimate D2E/DX2                !
 ! A54   A(25,29,38)           118.7229         estimate D2E/DX2                !
 ! A55   A(24,31,32)           129.0514         estimate D2E/DX2                !
 ! A56   A(24,31,35)           121.94           estimate D2E/DX2                !
 ! A57   A(32,31,35)           109.0086         estimate D2E/DX2                !
 ! A58   A(31,32,33)           115.5412         estimate D2E/DX2                !
 ! A59   A(31,32,36)           118.957          estimate D2E/DX2                !
 ! A60   A(33,32,36)           125.5018         estimate D2E/DX2                !
 ! A61   A(32,33,34)           113.2927         estimate D2E/DX2                !
 ! A62   A(32,33,37)           123.6997         estimate D2E/DX2                !
 ! A63   A(34,33,37)           123.0076         estimate D2E/DX2                !
 ! A64   A(33,34,35)           112.2934         estimate D2E/DX2                !
 ! A65   A(33,34,46)           128.6228         estimate D2E/DX2                !
 ! A66   A(35,34,46)           119.0838         estimate D2E/DX2                !
 ! A67   A(31,35,34)            89.8641         estimate D2E/DX2                !
 ! A68   A(32,36,42)           118.774          estimate D2E/DX2                !
 ! A69   A(29,38,39)           111.1618         estimate D2E/DX2                !
 ! A70   A(29,38,40)           111.1229         estimate D2E/DX2                !
 ! A71   A(29,38,41)           105.0613         estimate D2E/DX2                !
 ! A72   A(39,38,40)           110.0416         estimate D2E/DX2                !
 ! A73   A(39,38,41)           109.6964         estimate D2E/DX2                !
 ! A74   A(40,38,41)           109.6387         estimate D2E/DX2                !
 ! A75   A(36,42,43)           105.1251         estimate D2E/DX2                !
 ! A76   A(36,42,44)           111.1177         estimate D2E/DX2                !
 ! A77   A(36,42,45)           111.1343         estimate D2E/DX2                !
 ! A78   A(43,42,44)           109.6586         estimate D2E/DX2                !
 ! A79   A(43,42,45)           109.674          estimate D2E/DX2                !
 ! A80   A(44,42,45)           110.0169         estimate D2E/DX2                !
 ! D1    D(5,1,2,3)              0.0            estimate D2E/DX2                !
 ! D2    D(5,1,2,6)            180.0            estimate D2E/DX2                !
 ! D3    D(8,1,2,3)            180.0            estimate D2E/DX2                !
 ! D4    D(8,1,2,6)              0.0            estimate D2E/DX2                !
 ! D5    D(2,1,5,4)              0.0            estimate D2E/DX2                !
 ! D6    D(8,1,5,4)            180.0            estimate D2E/DX2                !
 ! D7    D(2,1,8,9)            180.0            estimate D2E/DX2                !
 ! D8    D(2,1,8,12)             0.0            estimate D2E/DX2                !
 ! D9    D(5,1,8,9)              0.0            estimate D2E/DX2                !
 ! D10   D(5,1,8,12)           180.0            estimate D2E/DX2                !
 ! D11   D(1,2,3,4)              0.0            estimate D2E/DX2                !
 ! D12   D(1,2,3,7)            180.0            estimate D2E/DX2                !
 ! D13   D(6,2,3,4)            180.0            estimate D2E/DX2                !
 ! D14   D(6,2,3,7)              0.0            estimate D2E/DX2                !
 ! D15   D(1,2,6,15)           180.0            estimate D2E/DX2                !
 ! D16   D(3,2,6,15)             0.0            estimate D2E/DX2                !
 ! D17   D(2,3,4,5)              0.0            estimate D2E/DX2                !
 ! D18   D(2,3,4,23)           179.9318         estimate D2E/DX2                !
 ! D19   D(7,3,4,5)            180.0            estimate D2E/DX2                !
 ! D20   D(7,3,4,23)            -0.0682         estimate D2E/DX2                !
 ! D21   D(3,4,5,1)              0.0            estimate D2E/DX2                !
 ! D22   D(23,4,5,1)          -179.939          estimate D2E/DX2                !
 ! D23   D(2,6,15,16)           61.4715         estimate D2E/DX2                !
 ! D24   D(2,6,15,17)          -61.4509         estimate D2E/DX2                !
 ! D25   D(2,6,15,18)         -179.9453         estimate D2E/DX2                !
 ! D26   D(1,8,9,10)           180.0            estimate D2E/DX2                !
 ! D27   D(1,8,9,13)             0.0            estimate D2E/DX2                !
 ! D28   D(12,8,9,10)            0.0            estimate D2E/DX2                !
 ! D29   D(12,8,9,13)          180.0            estimate D2E/DX2                !
 ! D30   D(1,8,12,11)          180.0            estimate D2E/DX2                !
 ! D31   D(9,8,12,11)            0.0            estimate D2E/DX2                !
 ! D32   D(8,9,10,11)            0.0            estimate D2E/DX2                !
 ! D33   D(8,9,10,14)          180.0            estimate D2E/DX2                !
 ! D34   D(13,9,10,11)         180.0            estimate D2E/DX2                !
 ! D35   D(13,9,10,14)           0.0            estimate D2E/DX2                !
 ! D36   D(8,9,13,19)          180.0            estimate D2E/DX2                !
 ! D37   D(10,9,13,19)           0.0            estimate D2E/DX2                !
 ! D38   D(9,10,11,12)           0.0            estimate D2E/DX2                !
 ! D39   D(9,10,11,27)         180.0            estimate D2E/DX2                !
 ! D40   D(14,10,11,12)        180.0            estimate D2E/DX2                !
 ! D41   D(14,10,11,27)          0.0            estimate D2E/DX2                !
 ! D42   D(10,11,12,8)           0.0            estimate D2E/DX2                !
 ! D43   D(27,11,12,8)         180.0            estimate D2E/DX2                !
 ! D44   D(10,11,27,26)        180.0            estimate D2E/DX2                !
 ! D45   D(10,11,27,28)          0.0            estimate D2E/DX2                !
 ! D46   D(12,11,27,26)          0.0            estimate D2E/DX2                !
 ! D47   D(12,11,27,28)        180.0            estimate D2E/DX2                !
 ! D48   D(9,13,19,20)         180.0            estimate D2E/DX2                !
 ! D49   D(9,13,19,21)         -61.4472         estimate D2E/DX2                !
 ! D50   D(9,13,19,22)          61.4203         estimate D2E/DX2                !
 ! D51   D(28,24,25,26)          0.0            estimate D2E/DX2                !
 ! D52   D(28,24,25,29)        180.0            estimate D2E/DX2                !
 ! D53   D(31,24,25,26)        180.0            estimate D2E/DX2                !
 ! D54   D(31,24,25,29)          0.0            estimate D2E/DX2                !
 ! D55   D(25,24,28,27)          0.0            estimate D2E/DX2                !
 ! D56   D(31,24,28,27)        180.0            estimate D2E/DX2                !
 ! D57   D(25,24,31,32)        180.0            estimate D2E/DX2                !
 ! D58   D(25,24,31,35)          0.0            estimate D2E/DX2                !
 ! D59   D(28,24,31,32)          0.0            estimate D2E/DX2                !
 ! D60   D(28,24,31,35)        180.0            estimate D2E/DX2                !
 ! D61   D(24,25,26,27)          0.0            estimate D2E/DX2                !
 ! D62   D(24,25,26,30)        180.0            estimate D2E/DX2                !
 ! D63   D(29,25,26,27)        180.0            estimate D2E/DX2                !
 ! D64   D(29,25,26,30)          0.0            estimate D2E/DX2                !
 ! D65   D(24,25,29,38)        180.0            estimate D2E/DX2                !
 ! D66   D(26,25,29,38)          0.0            estimate D2E/DX2                !
 ! D67   D(25,26,27,11)        180.0            estimate D2E/DX2                !
 ! D68   D(25,26,27,28)          0.0            estimate D2E/DX2                !
 ! D69   D(30,26,27,11)          0.0            estimate D2E/DX2                !
 ! D70   D(30,26,27,28)        180.0            estimate D2E/DX2                !
 ! D71   D(11,27,28,24)        180.0            estimate D2E/DX2                !
 ! D72   D(26,27,28,24)          0.0            estimate D2E/DX2                !
 ! D73   D(25,29,38,39)         61.4715         estimate D2E/DX2                !
 ! D74   D(25,29,38,40)        -61.4509         estimate D2E/DX2                !
 ! D75   D(25,29,38,41)       -179.9453         estimate D2E/DX2                !
 ! D76   D(24,31,32,33)        180.0            estimate D2E/DX2                !
 ! D77   D(24,31,32,36)          0.0            estimate D2E/DX2                !
 ! D78   D(35,31,32,33)          0.0            estimate D2E/DX2                !
 ! D79   D(35,31,32,36)        180.0            estimate D2E/DX2                !
 ! D80   D(24,31,35,34)        180.0            estimate D2E/DX2                !
 ! D81   D(32,31,35,34)          0.0            estimate D2E/DX2                !
 ! D82   D(31,32,33,34)          0.0            estimate D2E/DX2                !
 ! D83   D(31,32,33,37)        180.0            estimate D2E/DX2                !
 ! D84   D(36,32,33,34)        180.0            estimate D2E/DX2                !
 ! D85   D(36,32,33,37)          0.0            estimate D2E/DX2                !
 ! D86   D(31,32,36,42)        180.0            estimate D2E/DX2                !
 ! D87   D(33,32,36,42)          0.0            estimate D2E/DX2                !
 ! D88   D(32,33,34,35)          0.0            estimate D2E/DX2                !
 ! D89   D(32,33,34,46)        179.9318         estimate D2E/DX2                !
 ! D90   D(37,33,34,35)        180.0            estimate D2E/DX2                !
 ! D91   D(37,33,34,46)         -0.0682         estimate D2E/DX2                !
 ! D92   D(33,34,35,31)          0.0            estimate D2E/DX2                !
 ! D93   D(46,34,35,31)       -179.939          estimate D2E/DX2                !
 ! D94   D(32,36,42,43)        180.0            estimate D2E/DX2                !
 ! D95   D(32,36,42,44)        -61.4472         estimate D2E/DX2                !
 ! D96   D(32,36,42,45)         61.4203         estimate D2E/DX2                !
 --------------------------------------------------------------------------------
 Trust Radius=3.00D-01 FncErr=1.00D-07 GrdErr=1.00D-06 EigMax=2.50D+02 EigMin=1.00D-04
 Number of steps in this run=    235 maximum allowed number of steps=    276.
 GradGradGradGradGradGradGradGradGradGradGradGradGradGradGradGradGradGrad

 Leave Link  103 at Fri Jan 10 10:35:19 2020, MaxMem=  6710886400 cpu:               0.1 elap:               0.0
 (Enter /apps/gaussian/g16-a03/l202.exe)
                          Input orientation:                          
 ---------------------------------------------------------------------
 Center     Atomic      Atomic             Coordinates (Angstroms)
 Number     Number       Type             X           Y           Z
 ---------------------------------------------------------------------
      1          6           0       11.502909   -4.497165    0.000000
      2          6           0       11.146712   -5.832763    0.000000
      3          6           0       12.235496   -6.761823    0.000000
      4          6           0       13.455910   -6.160429    0.000000
      5         16           0       13.332406   -4.367807    0.000000
      6          8           0        9.796131   -6.169097    0.000000
      7          1           0       12.108244   -7.833054    0.000000
      8          6           0       10.661921   -3.340311    0.000000
      9          6           0       11.018119   -2.004713    0.000000
     10          6           0        9.929334   -1.075653    0.000000
     11          6           0        8.708921   -1.677047    0.000000
     12         16           0        8.832447   -3.470669    0.000000
     13          8           0       12.368676   -1.667379    0.000000
     14          1           0       10.056587   -0.004422    0.000000
     15          6           0        9.426534   -7.574024    0.000000
     16          1           0        9.796306   -8.078604    0.894000
     17          1           0        9.797305   -8.078581   -0.895000
     18          1           0        8.341385   -7.580129   -0.001000
     19          6           0       12.738297   -0.263452    0.000000
     20          1           0       13.823423   -0.256347    0.000000
     21          1           0       12.367525    0.241105   -0.895000
     22          1           0       12.367525    0.241105    0.894000
     23          1           0       14.428734   -6.617046    0.001000
     24          6           0        6.368610    1.694773    0.000000
     25          6           0        5.663703    0.505738    0.000000
     26          6           0        6.459877   -0.683679    0.000000
     27          6           0        7.797619   -0.435624    0.000000
     28         16           0        8.164673    1.323358    0.000000
     29          8           0        4.272518    0.548104    0.000000
     30          1           0        6.047006   -1.680306    0.000000
     31          6           0        5.872703    3.036283    0.000000
     32          6           0        6.577610    4.225318    0.000000
     33          6           0        5.781436    5.414734    0.000000
     34          6           0        4.443694    5.166680    0.000000
     35         16           0        4.076391    3.406729    0.000000
     36          8           0        7.969043    4.183920    0.000000
     37          1           0        6.194307    6.411361    0.000000
     38          6           0        3.535920   -0.704031    0.000000
     39          1           0        3.755068   -1.289955    0.894000
     40          1           0        3.756037   -1.290204   -0.895000
     41          1           0        2.489745   -0.415752   -0.001000
     42          6           0        8.705393    5.435087    0.000000
     43          1           0        9.751816    5.147777    0.000000
     44          1           0        8.485276    6.021260   -0.895000
     45          1           0        8.485276    6.021260    0.894000
     46          1           0        3.631071    5.869908    0.001000
 ---------------------------------------------------------------------
                    Distance matrix (angstroms):
                    1          2          3          4          5
     1  C    0.000000
     2  C    1.382280   0.000000
     3  C    2.380202   1.431295   0.000000
     4  C    2.565280   2.332330   1.360546   0.000000
     5  S    1.834065   2.631227   2.633349   1.796872   0.000000
     6  O    2.389236   1.391829   2.510344   3.659789   3.968613
     7  H    3.390366   2.219394   1.078762   2.147994   3.675121
     8  C    1.430235   2.539161   3.766017   3.969816   2.861335
     9  C    2.539161   3.830209   4.910408   4.817967   3.307588
    10  C    3.766017   4.910408   6.136035   6.188028   4.734889
    11  C    3.969816   4.817967   6.188028   6.529520   5.349468
    12  S    2.860954   3.306857   4.734178   5.348945   4.588517
    13  O    2.959264   4.340924   5.096185   4.622724   2.867243
    14  H    4.719808   5.929412   7.100008   7.032199   5.456200
    15  C    3.711926   2.447652   2.924028   4.270143   5.053283
    16  H    4.066748   2.768869   2.912524   4.227450   5.203197
    17  H    4.066528   2.768686   2.911984   4.226786   5.202673
    18  H    4.415870   3.305019   3.979162   5.307911   5.935429
    19  C    4.410273   5.792267   6.517794   5.940480   4.147130
    20  H    4.834182   6.185563   6.696472   5.915509   4.140676
    21  H    4.898958   6.259655   7.061123   6.554788   4.793129
    22  H    4.898775   6.259512   7.060997   6.554652   4.792943
    23  H    3.613080   3.374429   2.198011   1.074656   2.502202
    24  C    8.043701   8.915944  10.292443  10.579888   9.233057
    25  C    7.689302   8.380930   9.798261  10.254574   9.086278
    26  C    6.322567   6.962721   8.384606   8.884778   7.797722
    27  C    5.497753   6.351813   7.727584   8.049202   6.789398
    28  S    6.709867   7.752588   9.052169   9.165384   7.687316
    29  O    8.816649   9.379232  10.809443  11.372735  10.307655
    30  H    6.140161   6.576465   8.007448   8.658138   7.765289
    31  C    9.404895  10.318679  11.682809  11.919922  10.510362
    32  C   10.016999  11.047247  12.358355  12.456916  10.930190
    33  C   11.444693  12.461636  13.781272  13.888195  12.357802
    34  C   11.967557  12.880924  14.247855  14.474925  13.035170
    35  S   10.845493  11.634330  13.037272  13.397981  12.087896
    36  O    9.372804  10.508640  11.747848  11.709452  10.094439
    37  H   12.131662  13.207759  14.492369  14.518292  12.928377
    38  C    8.823876   9.177583  10.600918  11.321594  10.459178
    39  H    8.432940   8.721968  10.132040  10.891606  10.099396
    40  H    8.432061   8.721120  10.131183  10.890714  10.098491
    41  H    9.894193  10.212104  11.629801  12.379745  11.540452
    42  C   10.318708  11.529288  12.697490  12.530898  10.840017
    43  H    9.802613  11.068784  12.165822  11.899405  10.166954
    44  H   10.979271  12.182041  13.351868  13.187182  11.499061
    45  H   10.979190  12.181967  13.351801  13.187114  11.498983
    46  H   13.016990  13.908176  15.283873  15.532433  14.104138
                    6          7          8          9         10
     6  O    0.000000
     7  H    2.848617   0.000000
     8  C    2.958315   4.719808   0.000000
     9  C    4.339971   5.929412   1.382280   0.000000
    10  C    5.095186   7.100008   2.380202   1.431295   0.000000
    11  C    4.621747   7.032199   2.565280   2.332330   1.360546
    12  S    2.865345   5.455387   1.834112   2.631765   2.634248
    13  O    5.184926   6.171173   2.389919   1.392049   2.510085
    14  H    6.170175   8.093008   3.390367   2.219394   1.078762
    15  C    1.452728   2.694191   4.410273   5.792267   6.517794
    16  H    2.108424   2.490901   4.898974   6.259730   7.061039
    17  H    2.108828   2.490330   4.898958   6.259655   7.061123
    18  H    2.026647   3.775341   4.833317   6.184672   6.695506
    19  C    6.597953   7.595777   3.711926   2.447652   2.924028
    20  H    7.153998   7.768418   4.416551   3.305528   3.979345
    21  H    6.964466   8.127749   4.066528   2.768686   2.911984
    22  H    6.964338   8.127639   4.066308   2.768363   2.911676
    23  H    4.654210   2.619799   4.992581   5.736367   7.138042
    24  C    8.578366  11.123079   6.616993   5.941728   4.511543
    25  C    7.850503  10.538860   6.306686   5.913725   4.549331
    26  C    6.420312   9.111401   4.971406   4.745809   3.491530
    27  C    6.071801   8.561744   4.079391   3.582410   2.225724
    28  S    7.668021   9.969535   5.290185   4.383858   2.978134
    29  O    8.696614  11.473553   7.479588   7.212489   5.885249
    30  H    5.848520   8.636835   4.904392   4.981687   3.929132
    31  C   10.006613  12.530940   7.974808   7.203259   5.776181
    32  C   10.881302  13.266207   8.597694   7.650582   6.271710
    33  C   12.259809  14.681021  10.023470   9.081357   7.702609
    34  C   12.535886  15.091004  10.537326   9.728923   8.310173
    35  S   11.154007  13.814607   9.428242   8.801778   7.372157
    36  O   10.513002  12.709864   7.991598   6.898989   5.613007
    37  H   13.085911  15.423295  10.726355   9.700488   8.366948
    38  C    8.310065  11.149336   7.598017   7.594411   6.404206
    39  H    7.816630  10.648329   7.260015   7.352688   6.242333
    40  H    7.815840  10.647501   7.259146   7.351829   6.241527
    41  H    9.299691  12.146270   8.679718   8.675134   7.468799
    42  C   11.655334  13.697553   8.990863   7.790977   6.624784
    43  H   11.316961  13.192980   8.536739   7.263720   6.225960
    44  H   12.293257  14.348133   9.652866   8.463602   7.297431
    45  H   12.293184  14.348071   9.652773   8.463496   7.297308
    46  H   13.525739  16.113151  11.587104  10.797135   9.375976
                   11         12         13         14         15
    11  C    0.000000
    12  S    1.797871   0.000000
    13  O    3.659769   3.969480   0.000000
    14  H    2.147994   3.676056   2.848014   0.000000
    15  C    5.940480   4.146138   6.598837   7.595777   0.000000
    16  H    6.554509   4.791798   6.965640   8.127693   1.091132
    17  H    6.554788   4.792163   6.965378   8.127749   1.092280
    18  H    5.914513   4.138696   7.153998   7.767449   1.085167
    19  C    4.270143   5.053899   1.451768   2.694191   8.025723
    20  H    5.308156   5.936472   2.026647   3.775251   8.537038
    21  H    4.226786   5.203371   2.107923   2.490330   8.398017
    22  H    4.226574   5.203199   2.107498   2.489971   8.397911
    23  H    7.557768   6.420133   5.361254   7.927324   5.092918
    24  C    4.104415   5.722961   6.877853   4.060596   9.760199
    25  C    3.746719   5.084561   7.048341   4.422408   8.912993
    26  C    2.458654   3.660110   5.990124   3.660288   7.501860
    27  C    1.540000   3.206613   4.734109   2.299754   7.321892
    28  S    3.049366   4.840312   5.159278   2.311350   8.986417
    29  O    4.963161   6.078116   8.393816   5.810399   9.619399
    30  H    2.661916   3.311206   6.321683   4.345725   6.793903
    31  C    5.500873   7.148462   8.020106   5.172114  11.189652
    32  C    6.275380   8.019508   8.261981   5.476676  12.138403
    33  C    7.672257   9.394629   9.672025   6.902475  13.490536
    34  C    8.064041   9.688393  10.464689   7.631832  13.680432
    35  S    6.877871   8.361739   9.721552   6.884671  12.214784
    36  O    5.907483   7.703129   7.320825   4.679749  11.847933
    37  H    8.470279  10.228114  10.168033   7.488624  14.354034
    38  C    5.263715   5.975574   8.885135   6.558090   9.049648
    39  H    5.048735   5.597725   8.668098   6.493148   8.512007
    40  H    5.047943   5.596910   8.667228   6.492395   8.511284
    41  H    6.345786   7.040056   9.957904   7.578013   9.967943
    42  C    7.112134   8.906662   7.991537   5.604818  13.029083
    43  H    6.904045   8.667343   7.300295   5.161205  12.725958
    44  H    7.753384   9.540349   8.660080   6.291175  13.657186
    45  H    7.753269   9.540256   8.659977   6.291033  13.657120
    46  H    9.096212  10.691150  11.539343   8.706032  14.639900
                   16         17         18         19         20
    16  H    0.000000
    17  H    1.789000   0.000000
    18  H    1.779409   1.779718   0.000000
    19  C    8.398282   8.398017   8.536193   0.000000
    20  H    8.843337   8.842963   9.148253   1.085149   0.000000
    21  H    8.889840   8.707652   8.841988   1.092280   1.779922
    22  H    8.707970   8.889529   8.842089   1.091460   1.779419
    23  H    4.938926   4.938525   6.163064   6.574628   6.389436
    24  C   10.395539  10.395933   9.482386   6.663900   7.705914
    25  C    9.569147   9.569652   8.517701   7.116287   8.195231
    26  C    8.161858   8.162355   7.148504   6.292468   7.375935
    27  C    7.950417   7.950758   7.165168   4.943677   6.028470
    28  S    9.584277   9.584518   8.905241   4.841074   5.875110
    29  O   10.282585  10.283190   9.089766   8.504589   9.584723
    30  H    7.469585   7.470187   6.330252   6.839652   7.905714
    31  C   11.820939  11.821325  10.899660   7.617390   8.605542
    32  C   12.749342  12.749643  11.936477   7.622540   8.519808
    33  C   14.106332  14.106658  13.244614   8.979962   9.840463
    34  C   14.313883  14.314298  13.329409   9.913969  10.834599
    35  S   12.861941  12.862435  11.785636   9.407382  10.412625
    36  O   12.430110  12.430306  11.769940   6.521112   7.347771
    37  H   14.957698  14.957976  14.155273   9.347564  10.132214
    38  C    9.714731   9.715449   8.388874   9.212918  10.297239
    39  H    9.087481   9.262537   7.835918   9.085777  10.160677
    40  H    9.261088   9.087298   7.835037   9.084946  10.159830
    41  H   10.625731  10.626317   9.250404  10.249683  11.334798
    42  C   13.587096  13.587219  13.020305   6.981237   7.654192
    43  H   13.256635  13.256682  12.805815   6.180653   6.766279
    44  H   14.273244  14.160753  13.631497   7.641127   8.288859
    45  H   14.160684  14.273313  13.631563   7.641010   8.288751
    46  H   15.276405  15.276963  14.250984  10.979967  11.891805
                   21         22         23         24         25
    21  H    0.000000
    22  H    1.789000   0.000000
    23  H    7.217038   7.216666   0.000000
    24  C    6.237080   6.236936  11.578080   0.000000
    25  C    6.768478   6.768346  11.294239   1.382280   0.000000
    26  C    6.046202   6.046054   9.935166   2.380202   1.431295
    27  C    4.705638   4.705448   9.065410   2.565280   2.332330
    28  S    4.431282   4.431080  10.113777   1.834065   2.631227
    29  O    8.150117   8.150007  12.429324   2.389236   1.391829
    30  H    6.666469   6.666334   9.727526   3.390366   2.219394
    31  C    7.127184   7.127059  12.899319   1.430235   2.539161
    32  C    7.085061   7.084935  13.386448   2.539161   3.830209
    33  C    8.422828   8.422722  14.816865   3.766017   4.910408
    34  C    9.372802   9.372706  15.445298   3.969816   4.817967
    35  S    8.919927   8.919827  14.409964   2.860954   3.306857
    36  O    5.974400   5.974250  12.585248   2.959264   4.340924
    37  H    8.773922   8.773820  15.412501   4.719808   5.929412
    38  C    8.927013   8.926913  12.394238   3.711926   2.447652
    39  H    8.928554   8.747489  11.962545   4.066748   2.768869
    40  H    8.746579   8.927663  11.961794   4.066528   2.768686
    41  H    9.939881   9.939971  13.453457   4.415870   3.305019
    42  C    6.417919   6.417780  13.342059   4.410273   5.792267
    43  H    5.631908   5.631749  12.660356   4.834182   6.185563
    44  H    6.962905   7.189059  13.994795   4.898958   6.259655
    45  H    7.189059   6.962905  13.994603   4.898775   6.259512
    46  H   10.431293  10.431035  16.507984   4.992581   5.736367
                   26         27         28         29         30
    26  C    0.000000
    27  C    1.360546   0.000000
    28  S    2.633349   1.796872   0.000000
    29  O    2.510344   3.659789   3.968613   0.000000
    30  H    1.078762   2.147994   3.675121   2.848617   0.000000
    31  C    3.766017   3.969816   2.861335   2.958315   4.719808
    32  C    4.910408   4.817967   3.307588   4.339971   5.929412
    33  C    6.136035   6.188028   4.734889   5.095186   7.100008
    34  C    6.188028   6.529520   5.349468   4.621747   7.032199
    35  S    4.734178   5.348945   4.588517   2.865345   5.455387
    36  O    5.096185   4.622724   2.867243   5.184926   6.171173
    37  H    7.100008   7.032199   5.456200   6.170175   8.093008
    38  C    2.924028   4.270143   5.053283   1.452728   2.694191
    39  H    2.912524   4.227450   5.203197   2.108424   2.490901
    40  H    2.911984   4.226786   5.202673   2.108828   2.490330
    41  H    3.979162   5.307911   5.935429   2.026647   3.775341
    42  C    6.517794   5.940480   4.147130   6.597953   7.595777
    43  H    6.696472   5.915509   4.140676   7.153998   7.768418
    44  H    7.061123   6.554788   4.793129   6.964466   8.127749
    45  H    7.060997   6.554652   4.792943   6.964338   8.127639
    46  H    7.138042   7.557768   6.420643   5.360322   7.927324
                   31         32         33         34         35
    31  C    0.000000
    32  C    1.382280   0.000000
    33  C    2.380202   1.431295   0.000000
    34  C    2.565280   2.332330   1.360546   0.000000
    35  S    1.834112   2.631765   2.634248   1.797871   0.000000
    36  O    2.389919   1.392049   2.510085   3.659769   3.969480
    37  H    3.390366   2.219394   1.078762   2.147994   3.676056
    38  C    4.410273   5.792267   6.517794   5.940480   4.146138
    39  H    4.898974   6.259730   7.061039   6.554509   4.791798
    40  H    4.898958   6.259655   7.061123   6.554788   4.792163
    41  H    4.833317   6.184672   6.695506   5.914513   4.138696
    42  C    3.711926   2.447652   2.924028   4.270143   5.053899
    43  H    4.416551   3.305528   3.979345   5.308156   5.936472
    44  H    4.066528   2.768686   2.911984   4.226786   5.203371
    45  H    4.066308   2.768363   2.911676   4.226574   5.203199
    46  H    3.613080   3.374429   2.198011   1.074656   2.503110
                   36         37         38         39         40
    36  O    0.000000
    37  H    2.848014   0.000000
    38  C    6.598837   7.595777   0.000000
    39  H    6.965640   8.127693   1.091132   0.000000
    40  H    6.965378   8.127749   1.092280   1.789000   0.000000
    41  H    7.153998   7.767449   1.085167   1.779409   1.779718
    42  C    1.451768   2.694191   8.025723   8.398282   8.398017
    43  H    2.026647   3.775251   8.537038   8.843337   8.842963
    44  H    2.107923   2.490330   8.398017   8.889840   8.707652
    45  H    2.107498   2.489971   8.397911   8.707970   8.889529
    46  H    4.654090   2.619799   6.574628   7.216403   7.217038
                   41         42         43         44         45
    41  H    0.000000
    42  C    8.536193   0.000000
    43  H    9.148253   1.085149   0.000000
    44  H    8.841988   1.092280   1.779922   0.000000
    45  H    8.842089   1.091460   1.779419   1.789000   0.000000
    46  H    6.388439   5.092918   6.163197   4.938525   4.937981
                   46
    46  H    0.000000
 Stoichiometry    C20H18O4S4
 Framework group  C1[X(C20H18O4S4)]
 Deg. of freedom   132
 Full point group                 C1      NOp   1
 Largest Abelian subgroup         C1      NOp   1
 Largest concise Abelian subgroup C1      NOp   1
                         Standard orientation:                         
 ---------------------------------------------------------------------
 Center     Atomic      Atomic             Coordinates (Angstroms)
 Number     Number       Type             X           Y           Z
 ---------------------------------------------------------------------
      1          6           0        4.711656   -0.254751   -0.000017
      2          6           0        5.605227    0.799872   -0.000017
      3          6           0        6.989463    0.435871   -0.000017
      4          6           0        7.191966   -0.909520   -0.000017
      5         16           0        5.649355   -1.830985   -0.000017
      6          8           0        5.110776    2.100913   -0.000017
      7          1           0        7.796568    1.151629   -0.000017
      8          6           0        3.281747   -0.224227   -0.000017
      9          6           0        2.388176   -1.278850   -0.000017
     10          6           0        1.003941   -0.914850   -0.000017
     11          6           0        0.801437    0.430542   -0.000017
     12         16           0        2.344883    1.352558   -0.000017
     13          8           0        2.881793   -2.580443   -0.000017
     14          1           0        0.196835   -1.630607   -0.000017
     15          6           0        6.053635    3.206099   -0.000017
     16          1           0        6.679003    3.190354   -0.894017
     17          1           0        6.679554    3.189520    0.894983
     18          1           0        5.439452    4.100730    0.000983
     19          6           0        1.939768   -3.685078   -0.000017
     20          1           0        2.553118   -4.580260   -0.000017
     21          1           0        1.313849   -3.668498    0.894983
     22          1           0        1.313849   -3.668498   -0.894017
     23          1           0        8.122053   -1.447873   -0.001017
     24          6           0       -3.302977    0.428458   -0.000017
     25          6           0       -2.728744    1.685818   -0.000017
     26          6           0       -1.297665    1.710677   -0.000017
     27          6           0       -0.738043    0.470553   -0.000017
     28         16           0       -1.973111   -0.834574   -0.000017
     29          8           0       -3.557361    2.804113   -0.000017
     30          1           0       -0.714803    2.618421   -0.000017
     31          6           0       -4.687623    0.070227   -0.000017
     32          6           0       -5.261856   -1.187133   -0.000017
     33          6           0       -6.692935   -1.211991   -0.000017
     34          6           0       -7.252557    0.028133   -0.000017
     35         16           0       -6.016835    1.334016   -0.000017
     36          8           0       -4.433893   -2.306185   -0.000017
     37          1           0       -7.275797   -2.119735   -0.000017
     38          6           0       -2.949392    4.123505   -0.000017
     39          1           0       -2.343170    4.277870   -0.894017
     40          1           0       -2.342413    4.277217    0.894983
     41          1           0       -3.783091    4.818150    0.000983
     42          6           0       -5.041208   -3.624819   -0.000017
     43          1           0       -4.208163   -4.320222   -0.000017
     44          1           0       -5.648187   -3.778531    0.894983
     45          1           0       -5.648187   -3.778531   -0.894017
     46          1           0       -8.293753    0.294206   -0.001017
 ---------------------------------------------------------------------
 Rotational constants (GHZ):           0.3045155           0.0560600           0.0474014
 Leave Link  202 at Fri Jan 10 10:35:20 2020, MaxMem=  6710886400 cpu:               0.1 elap:               0.0
 (Enter /apps/gaussian/g16-a03/l301.exe)
 Standard basis: 6-311G (5D, 7F)
 Ernie: Thresh=  0.10000D-02 Tol=  0.10000D-05 Strict=F.
 There are   450 symmetry adapted cartesian basis functions of A   symmetry.
 There are   450 symmetry adapted basis functions of A   symmetry.
   450 basis functions,   874 primitive gaussians,   450 cartesian basis functions
   117 alpha electrons      117 beta electrons
       nuclear repulsion energy      3112.8772998738 Hartrees.
 IExCor=  402 DFT=T Ex+Corr=B3LYP ExCW=0 ScaHFX=  0.200000
 ScaDFX=  0.800000  0.720000  1.000000  0.810000 ScalE2=  1.000000  1.000000
 IRadAn=      5 IRanWt=     -1 IRanGd=            0 ICorTp=0 IEmpDi=  4
 NAtoms=   46 NActive=   46 NUniq=   46 SFac= 1.00D+00 NAtFMM=   60 NAOKFM=F Big=F
 Integral buffers will be    131072 words long.
 Raffenetti 2 integral format.
 Two-electron integral symmetry is turned on.
 Leave Link  301 at Fri Jan 10 10:35:20 2020, MaxMem=  6710886400 cpu:               0.6 elap:               0.1
 (Enter /apps/gaussian/g16-a03/l302.exe)
 NPDir=0 NMtPBC=     1 NCelOv=     1 NCel=       1 NClECP=     1 NCelD=      1
         NCelK=      1 NCelE2=     1 NClLst=     1 CellRange=     0.0.
 One-electron integrals computed using PRISM.
 One-electron integral symmetry used in STVInt
 NBasis=   450 RedAO= T EigKep=  2.70D-04  NBF=   450
 NBsUse=   450 1.00D-06 EigRej= -1.00D+00 NBFU=   450
 Precomputing XC quadrature grid using
 IXCGrd= 4 IRadAn=           5 IRanWt=          -1 IRanGd=           0 AccXCQ= 0.00D+00.
 Generated NRdTot=       0 NPtTot=           0 NUsed=           0 NTot=          32
 NSgBfM=   414   409   413   414   414 MxSgAt=    46 MxSgA2=    46.
 Leave Link  302 at Fri Jan 10 10:35:20 2020, MaxMem=  6710886400 cpu:               6.2 elap:               0.8
 (Enter /apps/gaussian/g16-a03/l303.exe)
 DipDrv:  MaxL=1.
 Leave Link  303 at Fri Jan 10 10:35:21 2020, MaxMem=  6710886400 cpu:               0.5 elap:               0.1
 (Enter /apps/gaussian/g16-a03/l401.exe)
 ExpMin= 7.71D-02 ExpMax= 9.34D+04 ExpMxC= 3.17D+03 IAcc=3 IRadAn=         5 AccDes= 0.00D+00
 Harris functional with IExCor=  402 and IRadAn=       5 diagonalized for initial guess.
 HarFok:  IExCor=  402 AccDes= 0.00D+00 IRadAn=         5 IDoV= 1 UseB2=F ITyADJ=14
 ICtDFT=  3500011 ScaDFX=  1.000000  1.000000  1.000000  1.000000
 FoFCou: FMM=F IPFlag=           0 FMFlag=      100000 FMFlg1=           0
         NFxFlg=           0 DoJE=T BraDBF=F KetDBF=T FulRan=T
         wScrn=  0.000000 ICntrl=       500 IOpCl=  0 I1Cent=   200000004 NGrid=           0
         NMat0=    1 NMatS0=      1 NMatT0=    0 NMatD0=    1 NMtDS0=    0 NMtDT0=    0
 Petite list used in FoFCou.
 Harris En= -2666.28850055113    
 JPrj=0 DoOrth=F DoCkMO=F.
 Leave Link  401 at Fri Jan 10 10:35:25 2020, MaxMem=  6710886400 cpu:              31.9 elap:               4.0
 (Enter /apps/gaussian/g16-a03/l502.exe)
 Integral symmetry usage will be decided dynamically.
 Closed shell SCF:
 Using DIIS extrapolation, IDIIS=  1040.
 NGot=  6710886400 LenX=  6710472858 LenY=  6710269908
 Requested convergence on RMS density matrix=1.00D-08 within 128 cycles.
 Requested convergence on MAX density matrix=1.00D-06.
 Requested convergence on             energy=1.00D-06.
 No special actions if energy rises.
 Fock matrices will be formed incrementally for  20 cycles.
 Integral accuracy reduced to 1.0D-05 until final iterations.

 Cycle   1  Pass 0  IDiag  1:
 FoFJK:  IHMeth= 1 ICntrl=       0 DoSepK=F KAlg= 0 I1Cent=           0 FoldK=F
 IRaf= 600000000 NMat=       1 IRICut=       1 DoRegI=T DoRafI=F ISym2E= 0 IDoP0=0 IntGTp=1.
 FoFCou: FMM=F IPFlag=           0 FMFlag=      100000 FMFlg1=           0
         NFxFlg=           0 DoJE=F BraDBF=F KetDBF=F FulRan=T
         wScrn=  0.000000 ICntrl=         0 IOpCl=  0 I1Cent=           0 NGrid=           0
         NMat0=    1 NMatS0=      1 NMatT0=    0 NMatD0=    1 NMtDS0=    0 NMtDT0=    0
 Symmetry not used in FoFCou.
 E= -2665.67633794634    
 DIIS: error= 3.70D-02 at cycle   1 NSaved=   1.
 NSaved= 1 IEnMin= 1 EnMin= -2665.67633794634     IErMin= 1 ErrMin= 3.70D-02
 ErrMax= 3.70D-02  0.00D+00 EMaxC= 1.00D-01 BMatC= 8.06D-01 BMatP= 8.06D-01
 IDIUse=3 WtCom= 6.30D-01 WtEn= 3.70D-01
 Coeff-Com:  0.100D+01
 Coeff-En:   0.100D+01
 Coeff:      0.100D+01
 Gap=     0.071 Goal=   None    Shift=    0.000
 GapD=    0.071 DampG=0.500 DampE=0.500 DampFc=0.2500 IDamp=-1.
 Damping current iteration by 2.50D-01
 RMSDP=4.79D-03 MaxDP=1.39D-01              OVMax= 2.37D-01

 Cycle   2  Pass 0  IDiag  1:
 RMSU=  1.20D-03    CP:  9.98D-01
 E= -2665.94298611008     Delta-E=       -0.266648163735 Rises=F Damp=T
 DIIS: error= 1.72D-02 at cycle   2 NSaved=   2.
 NSaved= 2 IEnMin= 2 EnMin= -2665.94298611008     IErMin= 2 ErrMin= 1.72D-02
 ErrMax= 1.72D-02  0.00D+00 EMaxC= 1.00D-01 BMatC= 1.96D-01 BMatP= 8.06D-01
 IDIUse=3 WtCom= 8.28D-01 WtEn= 1.72D-01
 Coeff-Com: -0.790D+00 0.179D+01
 Coeff-En:   0.000D+00 0.100D+01
 Coeff:     -0.654D+00 0.165D+01
 Gap=     0.164 Goal=   None    Shift=    0.000
 RMSDP=1.92D-03 MaxDP=9.45D-02 DE=-2.67D-01 OVMax= 2.14D-01

 Cycle   3  Pass 0  IDiag  1:
 RMSU=  1.73D-03    CP:  1.02D+00  1.61D+00
 E= -2666.36764346268     Delta-E=       -0.424657352598 Rises=F Damp=F
 DIIS: error= 4.78D-03 at cycle   3 NSaved=   3.
 NSaved= 3 IEnMin= 3 EnMin= -2666.36764346268     IErMin= 3 ErrMin= 4.78D-03
 ErrMax= 4.78D-03  0.00D+00 EMaxC= 1.00D-01 BMatC= 7.67D-03 BMatP= 1.96D-01
 IDIUse=3 WtCom= 9.52D-01 WtEn= 4.78D-02
 Coeff-Com: -0.150D+00 0.361D+00 0.789D+00
 Coeff-En:   0.000D+00 0.000D+00 0.100D+01
 Coeff:     -0.143D+00 0.344D+00 0.799D+00
 Gap=     0.107 Goal=   None    Shift=    0.000
 RMSDP=5.15D-04 MaxDP=2.67D-02 DE=-4.25D-01 OVMax= 3.92D-02

 Cycle   4  Pass 0  IDiag  1:
 RMSU=  3.90D-04    CP:  1.02D+00  1.66D+00  8.10D-01
 E= -2666.36799471873     Delta-E=       -0.000351256051 Rises=F Damp=F
 DIIS: error= 4.17D-03 at cycle   4 NSaved=   4.
 NSaved= 4 IEnMin= 4 EnMin= -2666.36799471873     IErMin= 4 ErrMin= 4.17D-03
 ErrMax= 4.17D-03  0.00D+00 EMaxC= 1.00D-01 BMatC= 7.54D-03 BMatP= 7.67D-03
 IDIUse=3 WtCom= 9.58D-01 WtEn= 4.17D-02
 Coeff-Com: -0.199D-01 0.648D-01 0.496D+00 0.460D+00
 Coeff-En:   0.000D+00 0.000D+00 0.490D+00 0.510D+00
 Coeff:     -0.191D-01 0.621D-01 0.495D+00 0.462D+00
 Gap=     0.107 Goal=   None    Shift=    0.000
 RMSDP=2.74D-04 MaxDP=1.11D-02 DE=-3.51D-04 OVMax= 2.26D-02

 Cycle   5  Pass 0  IDiag  1:
 RMSU=  1.48D-04    CP:  1.02D+00  1.61D+00  8.13D-01  4.36D-01
 E= -2666.37534535251     Delta-E=       -0.007350633789 Rises=F Damp=F
 DIIS: error= 1.18D-03 at cycle   5 NSaved=   5.
 NSaved= 5 IEnMin= 5 EnMin= -2666.37534535251     IErMin= 5 ErrMin= 1.18D-03
 ErrMax= 1.18D-03  0.00D+00 EMaxC= 1.00D-01 BMatC= 5.34D-04 BMatP= 7.54D-03
 IDIUse=3 WtCom= 9.88D-01 WtEn= 1.18D-02
 Coeff-Com:  0.570D-02 0.324D-03 0.231D+00 0.270D+00 0.492D+00
 Coeff-En:   0.000D+00 0.000D+00 0.000D+00 0.000D+00 0.100D+01
 Coeff:      0.563D-02 0.321D-03 0.229D+00 0.267D+00 0.498D+00
 Gap=     0.107 Goal=   None    Shift=    0.000
 RMSDP=8.18D-05 MaxDP=3.65D-03 DE=-7.35D-03 OVMax= 6.66D-03

 Cycle   6  Pass 0  IDiag  1:
 RMSU=  4.75D-05    CP:  1.02D+00  1.60D+00  8.26D-01  5.35D-01  6.71D-01
 E= -2666.37583119193     Delta-E=       -0.000485839413 Rises=F Damp=F
 DIIS: error= 3.20D-04 at cycle   6 NSaved=   6.
 NSaved= 6 IEnMin= 6 EnMin= -2666.37583119193     IErMin= 6 ErrMin= 3.20D-04
 ErrMax= 3.20D-04  0.00D+00 EMaxC= 1.00D-01 BMatC= 4.71D-05 BMatP= 5.34D-04
 IDIUse=3 WtCom= 9.97D-01 WtEn= 3.20D-03
 Coeff-Com:  0.695D-02-0.888D-02 0.792D-01 0.991D-01 0.275D+00 0.548D+00
 Coeff-En:   0.000D+00 0.000D+00 0.000D+00 0.000D+00 0.329D-01 0.967D+00
 Coeff:      0.693D-02-0.885D-02 0.790D-01 0.988D-01 0.275D+00 0.549D+00
 Gap=     0.107 Goal=   None    Shift=    0.000
 RMSDP=2.99D-05 MaxDP=1.53D-03 DE=-4.86D-04 OVMax= 2.33D-03

 Cycle   7  Pass 0  IDiag  1:
 RMSU=  1.85D-05    CP:  1.02D+00  1.61D+00  8.31D-01  5.12D-01  7.30D-01
                    CP:  6.31D-01
 E= -2666.37586909051     Delta-E=       -0.000037898586 Rises=F Damp=F
 DIIS: error= 1.90D-04 at cycle   7 NSaved=   7.
 NSaved= 7 IEnMin= 7 EnMin= -2666.37586909051     IErMin= 7 ErrMin= 1.90D-04
 ErrMax= 1.90D-04  0.00D+00 EMaxC= 1.00D-01 BMatC= 1.09D-05 BMatP= 4.71D-05
 IDIUse=3 WtCom= 9.98D-01 WtEn= 1.90D-03
 Coeff-Com:  0.406D-02-0.604D-02 0.234D-01 0.302D-01 0.117D+00 0.371D+00
 Coeff-Com:  0.460D+00
 Coeff-En:   0.000D+00 0.000D+00 0.000D+00 0.000D+00 0.000D+00 0.200D+00
 Coeff-En:   0.800D+00
 Coeff:      0.406D-02-0.603D-02 0.233D-01 0.301D-01 0.117D+00 0.371D+00
 Coeff:      0.461D+00
 Gap=     0.107 Goal=   None    Shift=    0.000
 RMSDP=1.37D-05 MaxDP=5.45D-04 DE=-3.79D-05 OVMax= 1.20D-03

 Cycle   8  Pass 0  IDiag  1:
 RMSU=  6.51D-06    CP:  1.02D+00  1.60D+00  8.32D-01  5.17D-01  7.14D-01
                    CP:  7.23D-01  4.42D-01
 E= -2666.37587946281     Delta-E=       -0.000010372297 Rises=F Damp=F
 DIIS: error= 6.11D-05 at cycle   8 NSaved=   8.
 NSaved= 8 IEnMin= 8 EnMin= -2666.37587946281     IErMin= 8 ErrMin= 6.11D-05
 ErrMax= 6.11D-05  0.00D+00 EMaxC= 1.00D-01 BMatC= 1.02D-06 BMatP= 1.09D-05
 IDIUse=1 WtCom= 1.00D+00 WtEn= 0.00D+00
 Coeff-Com:  0.173D-02-0.275D-02 0.514D-02 0.667D-02 0.383D-01 0.161D+00
 Coeff-Com:  0.290D+00 0.500D+00
 Coeff:      0.173D-02-0.275D-02 0.514D-02 0.667D-02 0.383D-01 0.161D+00
 Coeff:      0.290D+00 0.500D+00
 Gap=     0.107 Goal=   None    Shift=    0.000
 RMSDP=3.97D-06 MaxDP=1.78D-04 DE=-1.04D-05 OVMax= 3.73D-04

 Initial convergence to 1.0D-05 achieved.  Increase integral accuracy.
 Cycle   9  Pass 1  IDiag  1:
 E= -2666.37584426237     Delta-E=        0.000035200436 Rises=F Damp=F
 DIIS: error= 1.01D-04 at cycle   1 NSaved=   1.
 NSaved= 1 IEnMin= 1 EnMin= -2666.37584426237     IErMin= 1 ErrMin= 1.01D-04
 ErrMax= 1.01D-04  0.00D+00 EMaxC= 1.00D-01 BMatC= 2.47D-06 BMatP= 2.47D-06
 IDIUse=3 WtCom= 9.99D-01 WtEn= 1.01D-03
 Coeff-Com:  0.100D+01
 Coeff-En:   0.100D+01
 Coeff:      0.100D+01
 Gap=     0.107 Goal=   None    Shift=    0.000
 RMSDP=3.97D-06 MaxDP=1.78D-04 DE= 3.52D-05 OVMax= 4.29D-04

 Cycle  10  Pass 1  IDiag  1:
 RMSU=  1.33D-04    CP:  9.99D-01
 E= -2666.37584675255     Delta-E=       -0.000002490173 Rises=F Damp=F
 DIIS: error= 4.53D-05 at cycle   2 NSaved=   2.
 NSaved= 2 IEnMin= 2 EnMin= -2666.37584675255     IErMin= 2 ErrMin= 4.53D-05
 ErrMax= 4.53D-05  0.00D+00 EMaxC= 1.00D-01 BMatC= 5.10D-07 BMatP= 2.47D-06
 IDIUse=1 WtCom= 1.00D+00 WtEn= 0.00D+00
 Coeff-Com:  0.210D+00 0.790D+00
 Coeff:      0.210D+00 0.790D+00
 Gap=     0.107 Goal=   None    Shift=    0.000
 RMSDP=6.08D-06 MaxDP=2.23D-04 DE=-2.49D-06 OVMax= 7.48D-04

 Cycle  11  Pass 1  IDiag  1:
 RMSU=  6.02D-06    CP:  9.99D-01  1.01D+00
 E= -2666.37584577399     Delta-E=        0.000000978556 Rises=F Damp=F
 DIIS: error= 7.19D-05 at cycle   3 NSaved=   3.
 NSaved= 3 IEnMin= 2 EnMin= -2666.37584675255     IErMin= 2 ErrMin= 4.53D-05
 ErrMax= 7.19D-05  0.00D+00 EMaxC= 1.00D-01 BMatC= 1.39D-06 BMatP= 5.10D-07
 IDIUse=1 WtCom= 1.00D+00 WtEn= 0.00D+00
 Coeff-Com: -0.166D-02 0.624D+00 0.377D+00
 Coeff:     -0.166D-02 0.624D+00 0.377D+00
 Gap=     0.107 Goal=   None    Shift=    0.000
 RMSDP=3.99D-06 MaxDP=1.74D-04 DE= 9.79D-07 OVMax= 5.07D-04

 Cycle  12  Pass 1  IDiag  1:
 RMSU=  8.34D-07    CP:  9.99D-01  1.01D+00  3.57D-01
 E= -2666.37584726921     Delta-E=       -0.000001495217 Rises=F Damp=F
 DIIS: error= 6.78D-06 at cycle   4 NSaved=   4.
 NSaved= 4 IEnMin= 4 EnMin= -2666.37584726921     IErMin= 4 ErrMin= 6.78D-06
 ErrMax= 6.78D-06  0.00D+00 EMaxC= 1.00D-01 BMatC= 2.04D-08 BMatP= 5.10D-07
 IDIUse=1 WtCom= 1.00D+00 WtEn= 0.00D+00
 Coeff-Com: -0.453D-02 0.400D+00 0.251D+00 0.354D+00
 Coeff:     -0.453D-02 0.400D+00 0.251D+00 0.354D+00
 Gap=     0.107 Goal=   None    Shift=    0.000
 RMSDP=5.03D-07 MaxDP=2.47D-05 DE=-1.50D-06 OVMax= 4.06D-05

 Cycle  13  Pass 1  IDiag  1:
 RMSU=  2.51D-07    CP:  9.99D-01  1.01D+00  3.86D-01  5.29D-01
 E= -2666.37584729098     Delta-E=       -0.000000021772 Rises=F Damp=F
 DIIS: error= 1.03D-06 at cycle   5 NSaved=   5.
 NSaved= 5 IEnMin= 5 EnMin= -2666.37584729098     IErMin= 5 ErrMin= 1.03D-06
 ErrMax= 1.03D-06  0.00D+00 EMaxC= 1.00D-01 BMatC= 4.39D-10 BMatP= 2.04D-08
 IDIUse=1 WtCom= 1.00D+00 WtEn= 0.00D+00
 Coeff-Com: -0.247D-02 0.195D+00 0.123D+00 0.201D+00 0.483D+00
 Coeff:     -0.247D-02 0.195D+00 0.123D+00 0.201D+00 0.483D+00
 Gap=     0.107 Goal=   None    Shift=    0.000
 RMSDP=9.64D-08 MaxDP=3.98D-06 DE=-2.18D-08 OVMax= 5.39D-06

 Cycle  14  Pass 1  IDiag  1:
 RMSU=  6.94D-08    CP:  9.99D-01  1.01D+00  3.85D-01  5.26D-01  7.58D-01
 E= -2666.37584729139     Delta-E=       -0.000000000408 Rises=F Damp=F
 DIIS: error= 2.69D-07 at cycle   6 NSaved=   6.
 NSaved= 6 IEnMin= 6 EnMin= -2666.37584729139     IErMin= 6 ErrMin= 2.69D-07
 ErrMax= 2.69D-07  0.00D+00 EMaxC= 1.00D-01 BMatC= 3.99D-11 BMatP= 4.39D-10
 IDIUse=1 WtCom= 1.00D+00 WtEn= 0.00D+00
 Coeff-Com: -0.983D-03 0.731D-01 0.465D-01 0.813D-01 0.276D+00 0.524D+00
 Coeff:     -0.983D-03 0.731D-01 0.465D-01 0.813D-01 0.276D+00 0.524D+00
 Gap=     0.107 Goal=   None    Shift=    0.000
 RMSDP=2.84D-08 MaxDP=1.47D-06 DE=-4.08D-10 OVMax= 2.10D-06

 Cycle  15  Pass 1  IDiag  1:
 RMSU=  2.58D-08    CP:  9.99D-01  1.01D+00  3.84D-01  5.16D-01  7.64D-01
                    CP:  9.34D-01
 E= -2666.37584729143     Delta-E=       -0.000000000042 Rises=F Damp=F
 DIIS: error= 1.19D-07 at cycle   7 NSaved=   7.
 NSaved= 7 IEnMin= 7 EnMin= -2666.37584729143     IErMin= 7 ErrMin= 1.19D-07
 ErrMax= 1.19D-07  0.00D+00 EMaxC= 1.00D-01 BMatC= 6.03D-12 BMatP= 3.99D-11
 IDIUse=1 WtCom= 1.00D+00 WtEn= 0.00D+00
 Coeff-Com: -0.143D-03 0.875D-02 0.587D-02 0.118D-01 0.733D-01 0.304D+00
 Coeff-Com:  0.597D+00
 Coeff:     -0.143D-03 0.875D-02 0.587D-02 0.118D-01 0.733D-01 0.304D+00
 Coeff:      0.597D+00
 Gap=     0.107 Goal=   None    Shift=    0.000
 RMSDP=1.14D-08 MaxDP=3.73D-07 DE=-4.18D-11 OVMax= 1.26D-06

 Cycle  16  Pass 1  IDiag  1:
 RMSU=  7.86D-09    CP:  9.99D-01  1.01D+00  3.84D-01  5.17D-01  7.67D-01
                    CP:  9.99D-01  7.49D-01
 E= -2666.37584729142     Delta-E=        0.000000000012 Rises=F Damp=F
 DIIS: error= 5.50D-08 at cycle   8 NSaved=   8.
 NSaved= 8 IEnMin= 7 EnMin= -2666.37584729143     IErMin= 8 ErrMin= 5.50D-08
 ErrMax= 5.50D-08  0.00D+00 EMaxC= 1.00D-01 BMatC= 1.20D-12 BMatP= 6.03D-12
 IDIUse=1 WtCom= 1.00D+00 WtEn= 0.00D+00
 Coeff-Com:  0.153D-04-0.244D-02-0.131D-02-0.124D-02 0.194D-01 0.136D+00
 Coeff-Com:  0.376D+00 0.473D+00
 Coeff:      0.153D-04-0.244D-02-0.131D-02-0.124D-02 0.194D-01 0.136D+00
 Coeff:      0.376D+00 0.473D+00
 Gap=     0.107 Goal=   None    Shift=    0.000
 RMSDP=3.94D-09 MaxDP=1.95D-07 DE= 1.18D-11 OVMax= 4.36D-07

 SCF Done:  E(RB3LYP) =  -2666.37584729     A.U. after   16 cycles
            NFock= 16  Conv=0.39D-08     -V/T= 2.0021
 KE= 2.660787966493D+03 PE=-1.251802834087D+04 EE= 4.077987227213D+03
 Leave Link  502 at Fri Jan 10 10:36:49 2020, MaxMem=  6710886400 cpu:             675.7 elap:              84.5
 (Enter /apps/gaussian/g16-a03/l601.exe)
 Copying SCF densities to generalized density rwf, IOpCl= 0 IROHF=0.

 **********************************************************************

            Population analysis using the SCF density.

 **********************************************************************

 Orbital symmetries:
       Occupied  (A) (A) (A) (A) (A) (A) (A) (A) (A) (A) (A) (A)
                 (A) (A) (A) (A) (A) (A) (A) (A) (A) (A) (A) (A)
                 (A) (A) (A) (A) (A) (A) (A) (A) (A) (A) (A) (A)
                 (A) (A) (A) (A) (A) (A) (A) (A) (A) (A) (A) (A)
                 (A) (A) (A) (A) (A) (A) (A) (A) (A) (A) (A) (A)
                 (A) (A) (A) (A) (A) (A) (A) (A) (A) (A) (A) (A)
                 (A) (A) (A) (A) (A) (A) (A) (A) (A) (A) (A) (A)
                 (A) (A) (A) (A) (A) (A) (A) (A) (A) (A) (A) (A)
                 (A) (A) (A) (A) (A) (A) (A) (A) (A) (A) (A) (A)
                 (A) (A) (A) (A) (A) (A) (A) (A) (A)
       Virtual   (A) (A) (A) (A) (A) (A) (A) (A) (A) (A) (A) (A)
                 (A) (A) (A) (A) (A) (A) (A) (A) (A) (A) (A) (A)
                 (A) (A) (A) (A) (A) (A) (A) (A) (A) (A) (A) (A)
                 (A) (A) (A) (A) (A) (A) (A) (A) (A) (A) (A) (A)
                 (A) (A) (A) (A) (A) (A) (A) (A) (A) (A) (A) (A)
                 (A) (A) (A) (A) (A) (A) (A) (A) (A) (A) (A) (A)
                 (A) (A) (A) (A) (A) (A) (A) (A) (A) (A) (A) (A)
                 (A) (A) (A) (A) (A) (A) (A) (A) (A) (A) (A) (A)
                 (A) (A) (A) (A) (A) (A) (A) (A) (A) (A) (A) (A)
                 (A) (A) (A) (A) (A) (A) (A) (A) (A) (A) (A) (A)
                 (A) (A) (A) (A) (A) (A) (A) (A) (A) (A) (A) (A)
                 (A) (A) (A) (A) (A) (A) (A) (A) (A) (A) (A) (A)
                 (A) (A) (A) (A) (A) (A) (A) (A) (A) (A) (A) (A)
                 (A) (A) (A) (A) (A) (A) (A) (A) (A) (A) (A) (A)
                 (A) (A) (A) (A) (A) (A) (A) (A) (A) (A) (A) (A)
                 (A) (A) (A) (A) (A) (A) (A) (A) (A) (A) (A) (A)
                 (A) (A) (A) (A) (A) (A) (A) (A) (A) (A) (A) (A)
                 (A) (A) (A) (A) (A) (A) (A) (A) (A) (A) (A) (A)
                 (A) (A) (A) (A) (A) (A) (A) (A) (A) (A) (A) (A)
                 (A) (A) (A) (A) (A) (A) (A) (A) (A) (A) (A) (A)
                 (A) (A) (A) (A) (A) (A) (A) (A) (A) (A) (A) (A)
                 (A) (A) (A) (A) (A) (A) (A) (A) (A) (A) (A) (A)
                 (A) (A) (A) (A) (A) (A) (A) (A) (A) (A) (A) (A)
                 (A) (A) (A) (A) (A) (A) (A) (A) (A) (A) (A) (A)
                 (A) (A) (A) (A) (A) (A) (A) (A) (A) (A) (A) (A)
                 (A) (A) (A) (A) (A) (A) (A) (A) (A) (A) (A) (A)
                 (A) (A) (A) (A) (A) (A) (A) (A) (A) (A) (A) (A)
                 (A) (A) (A) (A) (A) (A) (A) (A) (A)
 The electronic state is 1-A.
 Alpha  occ. eigenvalues --  -88.89089 -88.88492 -88.87779 -88.87709 -19.15711
 Alpha  occ. eigenvalues --  -19.15656 -19.15373 -19.15290 -10.24269 -10.24199
 Alpha  occ. eigenvalues --  -10.24164 -10.24032 -10.23509 -10.23489 -10.23126
 Alpha  occ. eigenvalues --  -10.23014 -10.22642 -10.22270 -10.21936 -10.21887
 Alpha  occ. eigenvalues --  -10.21845 -10.21805 -10.20614 -10.20548 -10.18643
 Alpha  occ. eigenvalues --  -10.18594 -10.17734 -10.17674  -7.97663  -7.97163
 Alpha  occ. eigenvalues --   -7.96432  -7.96362  -5.94053  -5.93608  -5.93542
 Alpha  occ. eigenvalues --   -5.93117  -5.92952  -5.92770  -5.92700  -5.92446
 Alpha  occ. eigenvalues --   -5.92357  -5.92288  -5.91792  -5.91722  -1.06547
 Alpha  occ. eigenvalues --   -1.06517  -1.06217  -1.06149  -0.89861  -0.88690
 Alpha  occ. eigenvalues --   -0.87764  -0.86761  -0.79610  -0.77257  -0.75860
 Alpha  occ. eigenvalues --   -0.75642  -0.74746  -0.74185  -0.73084  -0.72481
 Alpha  occ. eigenvalues --   -0.70032  -0.69800  -0.68954  -0.67035  -0.62648
 Alpha  occ. eigenvalues --   -0.60340  -0.59025  -0.57286  -0.55261  -0.54804
 Alpha  occ. eigenvalues --   -0.54324  -0.54168  -0.53944  -0.52531  -0.49537
 Alpha  occ. eigenvalues --   -0.48328  -0.47598  -0.47588  -0.47207  -0.47112
 Alpha  occ. eigenvalues --   -0.46987  -0.46739  -0.45768  -0.45318  -0.45093
 Alpha  occ. eigenvalues --   -0.44601  -0.42949  -0.42812  -0.41924  -0.41466
 Alpha  occ. eigenvalues --   -0.41246  -0.40545  -0.40172  -0.38745  -0.38490
 Alpha  occ. eigenvalues --   -0.37567  -0.37563  -0.36563  -0.35346  -0.34781
 Alpha  occ. eigenvalues --   -0.34217  -0.33986  -0.33076  -0.32472  -0.32232
 Alpha  occ. eigenvalues --   -0.32195  -0.32130  -0.31477  -0.31107  -0.29023
 Alpha  occ. eigenvalues --   -0.26677  -0.24439  -0.24291  -0.23821  -0.23630
 Alpha  occ. eigenvalues --   -0.19612  -0.16934
 Alpha virt. eigenvalues --   -0.06209  -0.02801  -0.00454   0.00236   0.00541
 Alpha virt. eigenvalues --    0.00934   0.02323   0.03273   0.03474   0.04086
 Alpha virt. eigenvalues --    0.04181   0.04738   0.05170   0.06530   0.06931
 Alpha virt. eigenvalues --    0.07022   0.07170   0.07256   0.07348   0.09084
 Alpha virt. eigenvalues --    0.09194   0.09830   0.10110   0.10493   0.10514
 Alpha virt. eigenvalues --    0.10625   0.10931   0.11183   0.11273   0.11414
 Alpha virt. eigenvalues --    0.11631   0.11889   0.12258   0.12598   0.12975
 Alpha virt. eigenvalues --    0.13247   0.14787   0.16626   0.17252   0.18907
 Alpha virt. eigenvalues --    0.19343   0.19501   0.20507   0.20708   0.21291
 Alpha virt. eigenvalues --    0.21774   0.21991   0.22375   0.22594   0.23383
 Alpha virt. eigenvalues --    0.24241   0.25593   0.25816   0.26614   0.26809
 Alpha virt. eigenvalues --    0.28773   0.28873   0.30411   0.31143   0.31226
 Alpha virt. eigenvalues --    0.31590   0.31697   0.32664   0.32945   0.33947
 Alpha virt. eigenvalues --    0.34531   0.35617   0.36197   0.36870   0.37376
 Alpha virt. eigenvalues --    0.38158   0.38672   0.39601   0.40039   0.40582
 Alpha virt. eigenvalues --    0.40908   0.41224   0.42298   0.42839   0.42867
 Alpha virt. eigenvalues --    0.42921   0.43241   0.43668   0.43921   0.44905
 Alpha virt. eigenvalues --    0.45294   0.45819   0.46601   0.46618   0.47161
 Alpha virt. eigenvalues --    0.48189   0.48703   0.49435   0.49462   0.49543
 Alpha virt. eigenvalues --    0.50389   0.50566   0.50923   0.51173   0.51506
 Alpha virt. eigenvalues --    0.51587   0.52635   0.52979   0.53418   0.54006
 Alpha virt. eigenvalues --    0.55316   0.55530   0.56333   0.56398   0.56551
 Alpha virt. eigenvalues --    0.57235   0.57830   0.57993   0.58928   0.59038
 Alpha virt. eigenvalues --    0.59209   0.59767   0.60305   0.60944   0.61528
 Alpha virt. eigenvalues --    0.62425   0.62619   0.63399   0.63777   0.63844
 Alpha virt. eigenvalues --    0.64388   0.64608   0.65061   0.65552   0.65777
 Alpha virt. eigenvalues --    0.66327   0.68559   0.68616   0.69820   0.71004
 Alpha virt. eigenvalues --    0.72499   0.72986   0.74389   0.75268   0.76393
 Alpha virt. eigenvalues --    0.77533   0.77742   0.77917   0.79779   0.80241
 Alpha virt. eigenvalues --    0.80917   0.81555   0.81918   0.83820   0.85127
 Alpha virt. eigenvalues --    0.85698   0.87011   0.89604   0.90672   0.91390
 Alpha virt. eigenvalues --    0.93040   0.93315   0.93634   0.94013   0.94023
 Alpha virt. eigenvalues --    0.94514   0.95535   0.96587   0.96800   0.97026
 Alpha virt. eigenvalues --    0.97801   0.98139   0.99732   1.00901   1.04302
 Alpha virt. eigenvalues --    1.05823   1.09498   1.09722   1.11248   1.12774
 Alpha virt. eigenvalues --    1.15837   1.17033   1.22432   1.24793   1.29156
 Alpha virt. eigenvalues --    1.31430   1.34137   1.37694   1.51413   1.52831
 Alpha virt. eigenvalues --    1.55134   1.56318   1.71591   1.72121   1.73916
 Alpha virt. eigenvalues --    1.74506   1.75210   1.75476   1.76194   1.77185
 Alpha virt. eigenvalues --    1.80138   1.82154   1.85529   1.90420   2.19565
 Alpha virt. eigenvalues --    2.19799   2.19830   2.19851   2.20226   2.20433
 Alpha virt. eigenvalues --    2.20553   2.20775   2.25225   2.25356   2.26730
 Alpha virt. eigenvalues --    2.27011   2.27275   2.27919   2.34275   2.34666
 Alpha virt. eigenvalues --    2.37666   2.41127   2.51576   2.52558   2.52920
 Alpha virt. eigenvalues --    2.53158   2.53836   2.56365   2.58651   2.63951
 Alpha virt. eigenvalues --    2.66301   2.70739   2.71893   2.72017   2.72995
 Alpha virt. eigenvalues --    2.74701   2.75409   2.76050   2.76931   2.78423
 Alpha virt. eigenvalues --    2.79866   2.80353   2.81635   2.81715   2.82461
 Alpha virt. eigenvalues --    2.83761   2.84316   2.84880   2.85329   2.85550
 Alpha virt. eigenvalues --    2.85649   2.85853   2.86723   2.86972   2.88973
 Alpha virt. eigenvalues --    2.89633   2.90407   2.93093   2.94518   2.95089
 Alpha virt. eigenvalues --    2.95721   2.99179   3.02153   3.03290   3.04342
 Alpha virt. eigenvalues --    3.06560   3.06796   3.08286   3.09806   3.11150
 Alpha virt. eigenvalues --    3.17123   3.17431   3.18354   3.19589   3.20634
 Alpha virt. eigenvalues --    3.21751   3.23135   3.24011   3.25866   3.27879
 Alpha virt. eigenvalues --    3.31630   3.32108   4.85161   4.85341   4.87267
 Alpha virt. eigenvalues --    4.87398   4.98807   4.98845   4.99487   4.99802
 Alpha virt. eigenvalues --    5.14780   5.14889   5.16425   5.17589   7.61231
 Alpha virt. eigenvalues --    7.62439   7.62603   7.65215  17.16674  17.17734
 Alpha virt. eigenvalues --   17.19152  17.19748  17.34558  17.34736  17.37014
 Alpha virt. eigenvalues --   17.38072  17.40398  17.43451  17.44651  17.46664
 Alpha virt. eigenvalues --   23.14417  23.16343  23.23639  23.24874  23.29006
 Alpha virt. eigenvalues --   23.32535  23.34881  23.35500  23.36041  23.36157
 Alpha virt. eigenvalues --   23.40647  23.45124  23.54239  23.57951  23.65247
 Alpha virt. eigenvalues --   23.67521  23.74350  23.74431  23.80607  23.81859
 Alpha virt. eigenvalues --   49.88544  49.88807  49.89547  49.90012 188.74267
 Alpha virt. eigenvalues --  188.75767 188.75874 188.78610
          Condensed to atoms (all electrons):
               1          2          3          4          5          6
     1  C    6.216804   0.143309  -0.005797  -0.137124   0.295500  -0.117461
     2  C    0.143309   5.129357   0.253693   0.031574  -0.102211   0.287876
[...]
 67,0.,0.,0.00000255,0.00000002,0.00000004,0.00003561,0.,0.,0.00000109,
 -0.00000175,0.00000342,-0.00000795,0.00000175,-0.00000343,-0.00000795,
 0.,0.,0.00000015,0.00000009,-0.00000010,-0.00049723,-0.00000014,0.0000
 0010,-0.00000860,0.00000003,-0.00000003,-0.00015024,-0.00000003,0.0000
 0003,0.00012097,0.00000007,-0.00000016,-0.00005393,0.00000017,0.000000
 05,-0.00006651,0.,0.00000001,-0.00002772,0.00000005,0.00000014,0.00078
 337,-0.00000181,-0.00000168,-0.00476791,0.00000054,0.00000011,-0.00038
 977,0.00000004,-0.00000010,-0.00070929,0.00000033,0.00000001,0.0019069
 7,-0.00000673,-0.00001029,-0.05156906,-0.00000017,-0.00000005,0.000571
 65,-0.00000004,-0.00000008,0.00014827,-0.00001870,-0.00001526,-0.00000
 750,0.00001869,0.00001529,-0.00000749,0.,0.,0.00001031,-0.00000451,-0.
 00001278,0.56211183,-0.00001940,-0.00001032,0.,0.00004566,0.00001034,0
 .,0.00001168,0.00001260,0.,0.00001537,-0.00004244,0.,-0.00000512,0.000
 00529,0.,-0.00005378,-0.00001990,0.,-0.00000018,-0.00000283,0.,0.00007
 947,0.00003073,0.,-0.00008307,-0.00008005,0.,0.00002743,0.00001471,0.,
 -0.00007253,0.00005608,0.,-0.00001933,0.00001539,0.,0.00009107,0.00005
 652,0.,-0.00000149,-0.00000442,0.,0.00001296,0.00002696,0.,0.00000071,
 -0.00000513,0.00000234,0.00000071,-0.00000512,-0.00000234,-0.00000167,
 0.00000020,0.,-0.00002607,-0.00006536,0.,0.00000485,0.00000105,0.,-0.0
 0000137,0.00000605,-0.00000735,-0.00000137,0.00000605,0.00000735,0.000
 00014,-0.00000030,0.,-0.00020625,0.00017101,0.,0.00013082,-0.00006524,
 0.,0.00006372,0.00009743,0.,0.00008796,-0.00021651,0.,-0.00004648,-0.0
 0010398,-0.00000002,-0.00012765,-0.00005537,0.,0.00000905,-0.00000904,
 0.,-0.00063346,0.00008102,-0.00000006,0.00280207,-0.00171605,-0.000000
 18,0.00021905,0.00004879,0.,0.00006429,-0.00015306,-0.00000001,-0.0003
 5817,-0.00015255,0.,-0.01780517,-0.00422375,-0.00000122,0.00012804,-0.
 00017536,0.00000004,0.00005303,0.00008236,0.,0.00000005,-0.00001893,0.
 00000898,0.00000005,-0.00001893,-0.00000899,-0.00000186,0.00000359,0.,
 -0.31167164,0.05086922,-0.00001336,0.34011187,0.00000042,-0.00000207,0
 .,-0.00000192,0.00000059,0.,0.00000178,0.00000107,0.,-0.00000320,-0.00
 000155,0.,0.00000096,-0.00000113,0.,0.00000340,0.00000819,0.,0.0000007
 6,0.00000071,0.,0.00002978,0.00000859,0.,-0.00000442,-0.00001896,0.,0.
 00000696,-0.00000570,0.,-0.00003375,0.00003753,0.,-0.00001466,0.000011
 00,0.,0.00001847,0.00002471,0.,0.00001017,-0.00001154,0.,-0.00000396,-
 0.00000601,0.,-0.00000012,0.00000137,-0.00000066,-0.00000012,0.0000013
 7,0.00000066,0.00000020,-0.00000075,0.,-0.00000399,-0.00002927,0.,-0.0
 0000352,0.00000577,0.,0.00000433,-0.00000075,-0.00001108,0.00000433,-0
 .00000075,0.00001108,0.00000009,0.00000097,0.,-0.00019318,0.00016805,0
 .,0.00006441,-0.00000927,0.,0.00006500,0.00013912,0.,0.00012257,-0.000
 22814,0.00000002,-0.00010661,-0.00002240,-0.00000003,-0.00002714,0.000
 02189,0.,0.00002921,-0.00000114,0.,-0.00123321,0.00045920,-0.00000006,
 -0.00152113,-0.00540651,-0.00000065,0.00080955,-0.00108633,0.00000007,
 -0.00041692,-0.00003890,-0.00000002,-0.00045036,0.00006856,0.,-0.04306
 426,-0.00658724,-0.00000306,0.00007811,0.00068342,0.00000002,0.0000091
 2,0.00001542,0.,-0.00000113,-0.00000374,0.00000420,-0.00000113,-0.0000
 0374,-0.00000420,0.00000344,0.00000086,0.,0.06375702,-0.05581152,0.000
 00376,-0.04893509,0.06959694,0.,0.,-0.00000101,0.,0.,0.00000117,0.,0.,
 -0.00000085,0.,0.,-0.00000291,0.,0.,0.00000155,0.,0.,-0.00000325,0.,0.
 ,0.00000127,0.,0.,-0.00000132,0.,0.,0.00000337,0.,0.,-0.00002112,0.,0.
 ,-0.00000402,0.,0.,0.00000133,0.00000001,0.00000001,-0.00001437,0.,0.,
 0.00003055,0.,0.,0.00000255,-0.00000053,0.00000061,-0.00000061,0.00000
 053,-0.00000061,-0.00000061,0.,0.,0.00000082,0.,-0.00000001,0.00003593
 ,0.,0.,-0.00000053,-0.00000125,0.00000129,-0.00000823,0.00000125,-0.00
 000129,-0.00000822,0.,0.,0.00000133,-0.00000002,0.00000003,-0.00001428
 ,0.00000001,-0.00000001,-0.00002822,0.,0.00000002,0.00000770,0.0000000
 2,-0.00000002,-0.00007939,-0.00000002,-0.00000002,0.00010867,0.,0.,0.0
 0000075,0.,0.,0.00001923,-0.00000014,0.,0.00021740,0.00000006,-0.00000
 041,0.00053758,0.00000005,-0.00000005,0.00023822,-0.00000003,-0.000000
 04,0.00011141,-0.00000005,-0.00000002,-0.00008344,-0.00000405,-0.00000
 076,0.00038302,0.00000006,0.00000001,-0.00035586,0.,0.,0.00000967,-0.0
 0000075,0.00000072,-0.00000155,0.00000075,-0.00000073,-0.00000156,0.,0
 .,0.00000024,-0.00001246,0.00000297,-0.05225807,0.00001552,-0.00000184
 ,0.04907323,0.00000623,0.00001051,-0.00000139,-0.00001850,-0.00000605,
 -0.00000083,-0.00000338,-0.00000283,0.00000068,-0.00000486,0.00001166,
 0.00000181,0.00000326,-0.00000314,-0.00000145,0.00002055,0.00000778,0.
 00000170,0.00000039,0.00000120,-0.00000082,-0.00002224,-0.00002149,0.0
 0000138,0.00001087,0.00003528,-0.00000104,0.00001939,-0.00001314,0.000
 00925,-0.00005573,-0.00000500,0.00000780,0.00001337,-0.00000726,0.0000
 0127,-0.00000687,0.00000068,0.00000798,0.00000216,-0.00000540,-0.00001
 286,-0.00000505,-0.00001071,-0.00000132,0.,0.00000146,-0.00000051,-0.0
 0000063,0.00000244,0.00000130,0.00000071,-0.00000012,-0.00000053,0.000
 00284,-0.00000292,-0.00001820,-0.00000221,0.00000169,-0.00000010,0.000
 00226,-0.00000280,-0.00000022,0.00000049,-0.00000113,0.00000839,-0.000
 00008,0.00000032,-0.00000059,-0.00000833,0.00038670,0.00013297,-0.0000
 3047,-0.00016447,-0.00000478,-0.00010948,-0.00001482,0.00000781,0.0000
 4551,0.00006467,-0.00000550,-0.00000325,0.00009897,-0.00000772,0.00004
 413,0.00005073,0.00001818,-0.00001009,0.00000087,-0.00000079,-0.000468
 58,-0.00093861,-0.00014316,0.00414731,0.00000391,0.00155082,0.00029063
 ,0.00059293,-0.00000301,-0.00056105,-0.00015062,-0.00020812,0.00036526
 ,0.00024922,-0.00022402,0.00140160,-0.01566593,0.01317404,-0.00098387,
 -0.00007413,0.00084596,-0.00002229,-0.00003597,-0.00001849,0.00000379,
 0.00001115,-0.00000400,-0.00000005,0.00000652,0.00000587,-0.00000013,-
 0.00000146,-0.00000076,-0.07293880,0.03682200,-0.05872633,-0.00639656,
 0.01552154,-0.02804928,0.07201301,-0.00003939,-0.00001520,-0.00000606,
 0.00010942,0.00001869,0.00000090,0.00001688,0.00002461,-0.00000032,0.0
 0003870,-0.00008280,-0.00000123,-0.00001328,0.00001258,-0.00000117,-0.
 00013165,-0.00005981,-0.00000326,-0.00000146,-0.00000776,0.00000063,0.
 00012063,0.00004107,-0.00000106,-0.00014520,-0.00012989,0.00000322,0.0
 0005244,0.00004027,-0.00001456,-0.00013628,0.00006113,0.00002036,-0.00
 001721,0.00000679,0.00000993,0.00013622,0.00006850,-0.00000454,-0.0000
 2073,-0.00000099,0.00001831,0.00003874,0.00007105,0.00000252,0.0000014
 6,-0.00001393,0.00000534,0.00000244,-0.00001409,-0.00000610,-0.0000051
 2,0.00000137,0.00000061,-0.00003999,-0.00007894,0.00001147,0.00001204,
 -0.00000253,-0.00000008,-0.00000666,0.00001129,-0.00000349,-0.00000571
 ,0.00000975,-0.00000159,0.00000026,-0.00000174,0.00000144,0.00004063,0
 .00049309,0.00018123,0.00032288,-0.00022896,-0.00000372,-0.00010357,0.
 00003640,0.00003344,0.00006449,-0.00004224,-0.00011844,-0.00003523,0.0
 0049218,0.00012058,-0.00039653,-0.00008693,-0.00000515,-0.00002914,-0.
 00002686,0.00002276,-0.00047956,-0.00070057,-0.00018636,0.00651443,0.0
 0100006,0.00064631,-0.00046063,0.00050454,-0.00022892,-0.00039013,-0.0
 0006635,0.00000171,-0.00032275,0.00017784,-0.00018693,-0.00334106,-0.0
 3311663,0.02352203,-0.00015839,0.00031561,0.00018053,0.00008113,0.0001
 5607,-0.00001616,0.00001086,-0.00002320,0.00000486,0.00000612,-0.00003
 386,-0.00000706,-0.00001771,-0.00000431,0.00000085,0.03327261,-0.10505
 874,0.09724546,0.00224348,-0.00098845,0.00544299,-0.03333677,0.1265765
 6,0.00001474,0.00000711,0.00000071,-0.00004588,-0.00000691,-0.00000069
 ,-0.00000383,-0.00000843,0.00000046,-0.00001527,0.00002764,0.00000149,
 0.00000661,-0.00000586,-0.00000060,0.00005487,0.00002531,0.00000215,0.
 00000098,0.00000332,-0.00000072,-0.00003871,-0.00001856,0.00000111,0.0
 0003431,0.00004452,-0.00000131,-0.00000190,-0.00001683,0.00000851,0.00
 000632,-0.00001675,-0.00000019,0.00001187,-0.00000423,-0.00000251,-0.0
 0002388,-0.00000623,0.00000517,0.00000729,-0.00000208,-0.00001009,-0.0
 0001684,-0.00003025,-0.00000168,-0.00000051,0.00000534,-0.00000201,-0.
 00000130,0.00000610,0.00000281,0.00000233,-0.00000066,-0.00000061,0.00
 000888,0.00000508,-0.00001130,-0.00000421,0.00000193,-0.00000023,0.000
 00288,-0.00000300,-0.00000107,0.00000158,-0.00000147,0.00000609,-0.000
 00014,0.00000079,-0.00000077,-0.00006381,-0.00010975,0.00002045,-0.000
 16147,0.00006732,-0.00000197,0.00005355,-0.00002316,-0.00000148,-0.000
 00915,-0.00005622,0.00002939,0.00001264,-0.00005108,-0.00000571,0.0001
 8093,-0.00000032,0.00001343,0.00000671,0.00000756,-0.00000581,0.000137
 60,-0.00021934,-0.00008875,-0.00093276,0.00006013,0.00014603,-0.000140
 34,0.00109678,0.00006971,0.00032686,-0.00020328,0.00009349,0.00018040,
 -0.00023700,-0.00010825,0.00252141,0.00103780,0.00708890,0.00019179,-0
 .00066959,-0.00021055,-0.00002239,-0.00005761,-0.00000713,-0.00000402,
 0.00000468,-0.00000032,-0.00000579,0.00000718,0.00000220,0.00000861,0.
 00000457,-0.00000173,-0.05675418,0.09981314,-0.22751207,0.00115761,-0.
 00140268,0.00104152,0.06245701,-0.11288117,0.24095248,0.00000624,0.000
 01052,0.00000139,-0.00001851,-0.00000605,0.00000083,-0.00000338,-0.000
 00283,-0.00000068,-0.00000486,0.00001166,-0.00000181,0.00000326,-0.000
 00314,0.00000145,0.00002056,0.00000778,-0.00000171,0.00000039,0.000001
 20,0.00000082,-0.00002225,-0.00002149,-0.00000138,0.00001087,0.0000352
 9,0.00000104,0.00001939,-0.00001314,-0.00000925,-0.00005573,-0.0000050
 1,-0.00000780,0.00001338,-0.00000726,-0.00000127,-0.00000687,0.0000006
 8,-0.00000798,0.00000216,-0.00000541,0.00001286,-0.00000505,-0.0000107
 2,0.00000132,-0.00000063,0.00000244,-0.00000130,0.,0.00000146,0.000000
 51,0.00000071,-0.00000012,0.00000053,0.00000284,-0.00000292,0.00001820
 ,-0.00000221,0.00000169,0.00000010,0.00000049,-0.00000113,-0.00000839,
 0.00000226,-0.00000280,0.00000022,-0.00000008,0.00000032,0.00000059,-0
 .00000832,0.00038670,-0.00013295,-0.00003050,-0.00016446,0.00000476,-0
 .00010948,-0.00001483,-0.00000782,0.00004551,0.00006467,0.00000549,-0.
 00000325,0.00009896,0.00000774,0.00004417,0.00005073,-0.00001818,-0.00
 001009,0.00000087,0.00000079,-0.00046855,-0.00093872,0.00014306,0.0041
 4757,0.00000416,-0.00155050,0.00029068,0.00059306,0.00000312,-0.000561
 06,-0.00015061,0.00020802,0.00036532,0.00024917,0.00022404,0.00140336,
 -0.01566407,-0.01317670,-0.00098349,-0.00007410,-0.00084605,-0.0000222
 9,-0.00003598,0.00001849,-0.00000005,0.00000652,-0.00000587,0.00000379
 ,0.00001115,0.00000401,-0.00000013,-0.00000146,0.00000076,-0.07295417,
 0.03682719,0.05875176,-0.00639993,0.01551745,0.02805033,0.00323761,-0.
 00340628,-0.00915470,0.07202921,-0.00003939,-0.00001520,0.00000605,0.0
 0010941,0.00001868,-0.00000090,0.00001688,0.00002461,0.00000032,0.0000
 3869,-0.00008280,0.00000120,-0.00001328,0.00001258,0.00000119,-0.00013
 164,-0.00005980,0.00000328,-0.00000146,-0.00000776,-0.00000064,0.00012
 062,0.00004107,0.00000106,-0.00014520,-0.00012989,-0.00000321,0.000052
 45,0.00004027,0.00001455,-0.00013628,0.00006113,-0.00002037,-0.0000172
 1,0.00000679,-0.00000994,0.00013621,0.00006850,0.00000454,-0.00002073,
 -0.00000099,-0.00001831,0.00003874,0.00007105,-0.00000252,0.00000244,-
 0.00001409,0.00000610,0.00000146,-0.00001393,-0.00000534,-0.00000512,0
 .00000137,-0.00000061,-0.00003998,-0.00007893,-0.00001147,0.00001204,-
 0.00000253,0.00000008,-0.00000571,0.00000975,0.00000159,-0.00000666,0.
 00001129,0.00000349,0.00000026,-0.00000174,-0.00000143,0.00004065,0.00
 049307,-0.00018119,0.00032286,-0.00022894,0.00000370,-0.00010356,0.000
 03639,-0.00003342,0.00006448,-0.00004227,0.00011841,-0.00003521,0.0004
 9219,-0.00012049,-0.00039651,-0.00008693,0.00000512,-0.00002914,-0.000
 02686,-0.00002276,-0.00047952,-0.00070065,0.00018621,0.00651438,0.0010
 0039,-0.00064536,-0.00046072,0.00050467,0.00022887,-0.00039008,-0.0000
 6640,-0.00000177,-0.00032271,0.00017779,0.00018692,-0.00333751,-0.0331
 1310,-0.02352799,-0.00015831,0.00031545,-0.00018048,0.00008113,0.00015
 606,0.00001619,0.00000612,-0.00003386,0.00000705,0.00001086,-0.0000231
 9,-0.00000487,-0.00001771,-0.00000431,-0.00000085,0.03327751,-0.105032
 11,-0.09722443,0.00224427,-0.00098789,-0.00544286,-0.00340936,0.010654
 66,0.01381382,-0.03334303,0.12654574,-0.00001475,-0.00000711,0.0000007
 1,0.00004589,0.00000691,-0.00000069,0.00000383,0.00000843,0.00000047,0
 .00001528,-0.00002765,0.00000149,-0.00000661,0.00000586,-0.00000059,-0
 .00005489,-0.00002532,0.00000216,-0.00000098,-0.00000332,-0.00000072,0
 .00003873,0.00001856,0.00000111,-0.00003433,-0.00004454,-0.00000130,0.
 00000191,0.00001684,0.00000851,-0.00000634,0.00001676,-0.00000020,-0.0
 0001188,0.00000423,-0.00000251,0.00002389,0.00000623,0.00000517,-0.000
 00729,0.00000208,-0.00001008,0.00001684,0.00003026,-0.00000168,0.00000
 130,-0.00000610,0.00000281,0.00000051,-0.00000534,-0.00000201,-0.00000
 234,0.00000066,-0.00000061,-0.00000889,-0.00000509,-0.00001130,0.00000
 421,-0.00000193,-0.00000023,-0.00000158,0.00000147,0.00000609,-0.00000
 288,0.00000300,-0.00000108,0.00000014,-0.00000079,-0.00000077,0.000063
 80,0.00010987,0.00002042,0.00016152,-0.00006738,-0.00000197,-0.0000535
 8,0.00002317,-0.00000148,0.00000917,0.00005621,0.00002941,-0.00001264,
 0.00005115,-0.00000571,-0.00018099,0.00000031,0.00001342,-0.00000672,-
 0.00000757,-0.00000581,-0.00013775,0.00021910,-0.00008875,0.00093407,-
 0.00005998,0.00014592,0.00014027,-0.00109647,0.00006985,-0.00032701,0.
 00020318,0.00009349,-0.00018040,0.00023705,-0.00010822,-0.00252238,-0.
 00104518,0.00708335,-0.00019188,0.00066957,-0.00021082,0.00002240,0.00
 005763,-0.00000711,0.00000579,-0.00000718,0.00000220,0.00000403,-0.000
 00468,-0.00000032,-0.00000862,-0.00000457,-0.00000174,0.05677905,-0.09
 979186,-0.22752395,-0.00115833,0.00140450,0.00104457,0.00915748,-0.013
 80986,-0.02149911,-0.06248380,0.11286121,0.24096709,0.00000153,-0.0000
 0150,0.,-0.00000303,0.00000135,0.,0.00000034,-0.00000101,0.,-0.0000012
 8,0.00000239,0.,-0.00000001,-0.00000116,0.,0.00000401,0.00000080,0.,0.
 00000012,0.00000022,0.,-0.00000772,0.00000130,0.,-0.00000028,-0.000001
 15,0.,-0.00000966,-0.00000915,0.,0.00000766,-0.00002280,0.00000002,0.0
 0000878,0.00000118,0.,0.00000269,0.00000198,0.,-0.00000358,-0.00000166
 ,0.,-0.00000059,-0.00000180,0.,-0.00000008,0.00000026,-0.00000014,-0.0
 0000008,0.00000026,0.00000014,0.00000014,0.00000009,0.,-0.00000032,-0.
 00000275,0.,-0.00000018,0.00000023,0.,0.00000021,-0.00000004,-0.000000
 86,0.00000021,-0.00000004,0.00000086,-0.00000005,0.00000004,0.,0.00049
 514,0.00030289,-0.00000012,-0.00011816,0.00013449,0.00000003,0.0000281
 8,-0.00001450,-0.00000001,0.00006375,0.00005860,0.,0.00008009,-0.00025
 175,-0.00000005,0.00002200,-0.00011406,-0.00000002,0.00000318,0.000000
 81,0.,0.00017972,-0.00268911,0.00000020,-0.00310527,-0.00335110,-0.000
 00082,-0.00992270,0.01935638,-0.00000056,-0.26179381,0.14535407,-0.000
 01916,0.00581364,-0.00766116,0.00000062,-0.00093911,0.00113036,-0.0000
 0014,0.00079231,-0.00049720,0.00000043,0.00005473,-0.00000602,0.,-0.00
 000702,-0.00001278,0.00000156,-0.00000702,-0.00001278,-0.00000156,-0.0
 0000413,0.00000207,0.,0.00024195,0.00041748,0.00000005,-0.00002750,-0.
 00003920,0.,0.00002110,-0.00004542,0.00001328,0.00002111,-0.00004542,-
 0.00001328,0.26810901,0.00000194,0.00000180,0.,0.00000374,-0.00000029,
 0.,-0.00000023,0.00000103,0.,0.00000476,-0.00000342,0.,-0.00000045,-0.
 00000015,0.,-0.00000722,-0.00000970,0.,-0.00000048,-0.00000087,0.,-0.0
 0001504,-0.00001507,0.,-0.00001472,0.00001179,0.,0.00000899,-0.0000095
 8,0.,-0.00000145,-0.00006551,0.,0.00002049,-0.00000320,0.,0.00000979,-
 0.00000077,0.,-0.00001487,-0.00000218,0.,0.00000453,0.00000782,0.,0.00
 000032,-0.00000174,0.00000079,0.00000032,-0.00000174,-0.00000079,-0.00
 000030,0.00000097,0.,-0.00000211,-0.00000136,0.,0.00000156,-0.00000076
 ,0.,-0.00000116,0.00000063,0.00000159,-0.00000116,0.00000063,-0.000001
 59,0.00000004,-0.00000075,0.,0.00120978,0.00080721,0.00000015,-0.00054
 317,0.00003644,-0.00000003,-0.00005188,-0.00005048,0.,0.00016478,0.000
 19988,0.,0.00012345,-0.00036249,0.,0.00021176,-0.00051476,-0.00000003,
 -0.00000577,-0.00001136,0.,-0.00290261,-0.00518384,0.00000005,-0.00255
 052,-0.00007623,-0.00000029,-0.01182300,0.01027016,-0.00000099,0.14913
 417,-0.15311146,0.00001281,0.01801985,-0.00792481,0.00000074,-0.000252
 23,0.00077942,0.00000008,0.00102720,0.00063114,0.00000004,0.00018915,0
 .00000645,0.00000001,-0.00001857,-0.00005098,0.00000368,-0.00001857,-0
 .00005098,-0.00000369,-0.00000659,0.00000703,0.,0.00009885,-0.00001492
 ,0.,-0.00000344,-0.00000157,0.,-0.00000811,0.00001068,-0.00000768,-0.0
 0000811,0.00001068,0.00000769,-0.15198369,0.15468723,0.,0.,0.00002847,
 0.00000002,0.,0.00000264,0.,0.,-0.00000362,0.,-0.00000001,-0.00000156,
 0.,0.,0.00000409,-0.00000002,0.,0.00000031,0.,0.,0.00000094,0.00000002
 ,0.,-0.00001003,-0.00000002,-0.00000001,-0.00006158,0.00000002,0.,0.00
 002478,-0.00000003,0.00000003,-0.00019074,0.,0.,-0.00002603,0.00000001
 ,0.,-0.00000278,0.,0.,0.00004084,0.,0.00000001,0.00000015,-0.00000059,
 0.00000144,-0.00000077,0.00000059,-0.00000144,-0.00000077,0.,0.,0.0000
 0133,0.,0.,0.00000939,0.,0.,0.00000036,-0.00000106,0.00000013,-0.00000
 140,0.00000106,-0.00000013,-0.00000140,0.,0.,-0.00000060,-0.00000012,0
 .00000009,0.00229880,0.00000007,-0.00000005,-0.00038066,-0.00000002,0.
 00000003,0.00020765,0.00000004,-0.00000008,-0.00001651,0.00000002,0.,0
 .00044648,-0.00000010,0.00000002,0.00002976,0.,0.,0.00000389,0.0000010
 2,-0.00000015,-0.00208756,-0.00000057,-0.00000109,0.00660934,-0.000001
 90,0.00000180,0.00232759,-0.00001786,0.00001191,-0.02212037,-0.0000004
 7,-0.00000024,-0.00126342,-0.00000018,0.00000017,0.00063392,0.00000045
 ,0.00000004,-0.00433165,0.00000002,0.00000003,-0.00005120,-0.00000041,
 0.00003059,-0.00000697,0.00000042,-0.00003060,-0.00000698,0.,0.,0.0000
 1325,0.00000005,0.00000007,-0.00002780,0.,0.,0.00001634,0.00004414,0.0
 0000973,-0.00000946,-0.00004412,-0.00000974,-0.00000948,0.00001954,-0.
 00001254,0.01791300\\-0.00001835,0.00003025,-0.00000517,0.00001942,-0.
 00000453,0.00000108,0.00000498,-0.00000370,0.00000637,-0.00000929,0.00
 000052,-0.00001015,0.00003212,-0.00000762,0.00001066,-0.00000679,0.000
 00545,0.00000031,0.00000022,0.00000248,0.00000084,0.00001211,-0.000033
 88,-0.00000021,0.00001830,-0.00000245,0.00000036,0.00000366,-0.0000024
 2,-0.00000139,0.00000996,0.,0.00000291,-0.00001768,0.00002168,-0.00000
 315,0.00000212,-0.00001831,-0.00000103,-0.00001546,-0.00000170,-0.0000
 0016,-0.00001001,0.00000039,0.00000034,-0.00000009,0.00000043,-0.00000
 059,0.00000025,0.00000074,0.00000059,-0.00000140,-0.00000362,-0.000000
 03,-0.00000116,0.00000178,-0.00000008,-0.00000104,0.00000396,0.,0.0000
 0197,0.00000424,0.00000114,0.00000178,0.00000415,-0.00000111,0.0000007
 1,-0.00000163,-0.00000168,-0.00002923,0.00009208,-0.00000030,0.0000571
 8,-0.00006622,0.00000012,-0.00001933,0.00000846,-0.00000073,-0.0000267
 9,0.00006491,0.00000185,-0.00000451,-0.00006945,-0.00000171,-0.0000298
 4,0.00001975,-0.00000019,0.00001162,0.00000077,-0.00000011,0.00005105,
 -0.00003822,-0.00000331,-0.00001432,0.00000541,0.00000100,-0.00001196,
 -0.00000496,0.00000387,0.00000743,0.00001419,-0.00000634,-0.00002380,-
 0.00000520,0.00000663,0.00000552,-0.00000760,-0.00000024,0.00000030,0.
 00000013,0.00000055,-0.00000643,-0.00001561,-0.00000037,-0.00000001,0.
 00000075,-0.00000017,0.,0.00000072,0.00000025,0.00000274,0.00000229,0.
 00000004,0.00000410,-0.00000082,0.00000046,0.00000112,0.00000237,-0.00
 000007,-0.00000032,-0.00000019,0.00000028,-0.00000023,0.,-0.00000030,-
 0.00000060,0.00000022,-0.00000108\\\@


 HOW IS IT THAT THE SKY FEEDS THE STARS?

                           -- LUCRETIUS
 Job cpu time:       0 days  3 hours 15 minutes 17.3 seconds.
 Elapsed time:       0 days  0 hours 24 minutes 24.9 seconds.
 File lengths (MBytes):  RWF=   1242 Int=      0 D2E=      0 Chk=     18 Scr=      1
 Normal termination of Gaussian 16 at Fri Jan 10 11:13:06 2020.
