 Entering Gaussian System, Link 0=g16
 Input=OBT_2m_eth_opt_freq.gjf
 Output=OBT_2m_eth_opt_freq.log
 Initial command:
 /apps/gaussian/g16-a03/l1.exe "/tmp/pbs.946451.pbs/Gau-40350.inp" -scrdir="/tmp/pbs.946451.pbs/"
 Entering Link 1 = /apps/gaussian/g16-a03/l1.exe PID=     40351.
  
 Copyright (c) 1988,1990,1992,1993,1995,1998,2003,2009,2016,
            Gaussian, Inc.  All Rights Reserved.
  
 This is part of the Gaussian(R) 16 program.  It is based on
 the Gaussian(R) 09 system (copyright 2009, Gaussian, Inc.),
 the Gaussian(R) 03 system (copyright 2003, Gaussian, Inc.),
 the Gaussian(R) 98 system (copyright 1998, Gaussian, Inc.),
 the Gaussian(R) 94 system (copyright 1995, Gaussian, Inc.),
 the Gaussian 92(TM) system (copyright 1992, Gaussian, Inc.),
 the Gaussian 90(TM) system (copyright 1990, Gaussian, Inc.),
 the Gaussian 88(TM) system (copyright 1988, Gaussian, Inc.),
 the Gaussian 86(TM) system (copyright 1986, Carnegie Mellon
 University), and the Gaussian 82(TM) system (copyright 1983,
 Carnegie Mellon University). Gaussian is a federally registered
 trademark of Gaussian, Inc.
  
 This software contains proprietary and confidential information,
 including trade secrets, belonging to Gaussian, Inc.
  
 This software is provided under written license and may be
 used, copied, transmitted, or stored only in accord with that
 written license.
  
 The following legend is applicable only to US Government
 contracts under FAR:
  
                    RESTRICTED RIGHTS LEGEND
  
 Use, reproduction and disclosure by the US Government is
 subject to restrictions as set forth in subparagraphs (a)
 and (c) of the Commercial Computer Software - Restricted
 Rights clause in FAR 52.227-19.
  
 Gaussian, Inc.
 340 Quinnipiac St., Bldg. 40, Wallingford CT 06492
  
  
 ---------------------------------------------------------------
 Warning -- This program may not be used in any manner that
 competes with the business of Gaussian, Inc. or will provide
 assistance to any competitor of Gaussian, Inc.  The licensee
 of this program is prohibited from giving any competitor of
 Gaussian, Inc. access to this program.  By using this program,
 the user acknowledges that Gaussian, Inc. is engaged in the
 business of creating and licensing software in the field of
 computational chemistry and represents and warrants to the
 licensee that it is not a competitor of Gaussian, Inc. and that
 it will not use this program in any manner prohibited above.
 ---------------------------------------------------------------
  

 Cite this work as:
 Gaussian 16, Revision A.03,
 M. J. Frisch, G. W. Trucks, H. B. Schlegel, G. E. Scuseria, 
 M. A. Robb, J. R. Cheeseman, G. Scalmani, V. Barone, 
 G. A. Petersson, H. Nakatsuji, X. Li, M. Caricato, A. V. Marenich, 
 J. Bloino, B. G. Janesko, R. Gomperts, B. Mennucci, H. P. Hratchian, 
 J. V. Ortiz, A. F. Izmaylov, J. L. Sonnenberg, D. Williams-Young, 
 F. Ding, F. Lipparini, F. Egidi, J. Goings, B. Peng, A. Petrone, 
 T. Henderson, D. Ranasinghe, V. G. Zakrzewski, J. Gao, N. Rega, 
 G. Zheng, W. Liang, M. Hada, M. Ehara, K. Toyota, R. Fukuda, 
 J. Hasegawa, M. Ishida, T. Nakajima, Y. Honda, O. Kitao, H. Nakai, 
 T. Vreven, K. Throssell, J. A. Montgomery, Jr., J. E. Peralta, 
 F. Ogliaro, M. J. Bearpark, J. J. Heyd, E. N. Brothers, K. N. Kudin, 
 V. N. Staroverov, T. A. Keith, R. Kobayashi, J. Normand, 
 K. Raghavachari, A. P. Rendell, J. C. Burant, S. S. Iyengar, 
 J. Tomasi, M. Cossi, J. M. Millam, M. Klene, C. Adamo, R. Cammi, 
 J. W. Ochterski, R. L. Martin, K. Morokuma, O. Farkas, 
 J. B. Foresman, and D. J. Fox, Gaussian, Inc., Wallingford CT, 2016.
 
 ******************************************
 Gaussian 16:  ES64L-G16RevA.03 25-Dec-2016
                10-Jan-2020 
 ******************************************
 %mem=50GB
 %nprocshared=8
 Will use up to    8 processors via shared memory.
 ------------------------------
 #p opt freq=Raman b3lyp/6-311g
 ------------------------------
 1/18=20,19=15,26=3,38=1/1,3;
 2/9=110,12=2,17=6,18=5,40=1/2;
 3/5=4,6=6,11=2,25=1,30=1,71=1,74=-5/1,2,3;
 4//1;
 5/5=2,38=5/2;
 6/7=2,8=2,9=2,10=2,28=1/1;
 7//1,2,3,16;
 1/18=20,19=15,26=3/3(2);
 2/9=110/2;
 99//99;
 2/9=110/2;
 3/5=4,6=6,11=2,25=1,30=1,71=1,74=-5/1,2,3;
 4/5=5,16=3,69=1/1;
 5/5=2,38=5/2;
 7//1,2,3,16;
 1/18=20,19=15,26=3/3(-5);
 2/9=110/2;
 6/7=2,8=2,9=2,10=2,19=2,28=1/1;
 99/9=1/99;
 Leave Link    1 at Fri Jan 10 14:14:58 2020, MaxMem=  6710886400 cpu:               0.2 elap:               0.0
 (Enter /apps/gaussian/g16-a03/l101.exe)
 -----------------------
 OBT_2m_eth_opt_freq.gjf
 -----------------------
 Symbolic Z-matrix:
 Charge =  0 Multiplicity = 1
 C                     4.672    -0.134     0. 
 C                     5.346     1.075     0. 
 C                     6.773     0.987     0. 
 C                     7.233    -0.295     0. 
 S                     5.899    -1.5       0. 
 O                     4.608     2.255     0. 
 H                     7.427     1.845     0. 
 C                     3.268    -0.38      0. 
 C                     2.591    -1.588     0. 
 C                     1.174    -1.508     0. 
 C                     0.678    -0.224     0. 
 S                     2.046     0.987     0. 
 O                     3.331    -2.765     0. 
 H                     0.53     -2.373     0. 
 C                     5.317     3.522     0. 
 H                     5.935     3.627    -0.895 
 H                     5.935     3.627     0.895 
 C                     2.626    -4.036     0. 
 H                     2.009    -4.142     0.895 
 H                     2.009    -4.142    -0.895 
 H                     8.251    -0.642     0. 
 C                    -3.268     0.38      0. 
 C                    -2.591     1.588     0. 
 C                    -1.174     1.507     0. 
 C                    -0.678     0.223     0. 
 S                    -2.046    -0.987     0. 
 O                    -3.331     2.765     0. 
 H                    -0.53      2.372     0. 
 C                    -4.672     0.134     0. 
 C                    -5.346    -1.074     0. 
 C                    -6.773    -0.986     0. 
 C                    -7.233     0.295     0. 
 S                    -5.899     1.5       0. 
 O                    -4.609    -2.255     0. 
 H                    -7.427    -1.844     0. 
 C                    -2.625     4.036     0. 
 H                    -2.008     4.142    -0.894 
 H                    -2.009     4.142     0.895 
 C                    -5.318    -3.522     0. 
 H                    -5.935    -3.627     0.894 
 H                    -5.935    -3.627    -0.895 
 H                    -8.25      0.642     0. 
 C                    -3.73085   5.10778   0. 
 H                    -3.28488   6.08041   0.00196 
 H                    -4.33683   4.99502  -0.87463 
 H                    -4.33918   4.99258   0.87267 
 C                     4.21676   4.59953   0. 
 H                     3.6102    4.48993  -0.87463 
 H                     3.60783   4.48751   0.87267 
 H                     4.66779   5.56982   0.00196 
 C                     3.73116  -5.10849   0. 
 H                     3.28456  -6.08083   0.0002 
 H                     4.33827  -4.99502  -0.87375 
 H                     4.33851  -4.99478   0.87355 
 C                    -4.21776  -4.59953   0. 
 H                    -3.6112   -4.48993  -0.87463 
 H                    -3.60883  -4.48751   0.87267 
 H                    -4.66879  -5.56982   0.00196 
 
 ITRead=  0  0  0  0  0  0  0  0  0  0  0  0  0  0  0  0  0  0  0  0
 ITRead=  0  0  0  0  0  0  0  0  0  0  0  0  0  0  0  0  0  0  0  0
 ITRead=  0  0  0  0  0  0  0  0  0  0  0  0  0  0  0  0  0  0
 MicOpt= -1 -1 -1 -1 -1 -1 -1 -1 -1 -1 -1 -1 -1 -1 -1 -1 -1 -1 -1 -1
 MicOpt= -1 -1 -1 -1 -1 -1 -1 -1 -1 -1 -1 -1 -1 -1 -1 -1 -1 -1 -1 -1
 MicOpt= -1 -1 -1 -1 -1 -1 -1 -1 -1 -1 -1 -1 -1 -1 -1 -1 -1 -1
 NAtoms=     58 NQM=       58 NQMF=       0 NMMI=      0 NMMIF=      0
                NMic=       0 NMicF=      0.
                    Isotopes and Nuclear Properties:
 (Nuclear quadrupole moments (NQMom) in fm**2, nuclear magnetic moments (NMagM)
  in nuclear magnetons)

  Atom         1           2           3           4           5           6           7           8           9          10
 IAtWgt=          12          12          12          12          32          16           1          12          12          12
 AtmWgt=  12.0000000  12.0000000  12.0000000  12.0000000  31.9720718  15.9949146   1.0078250  12.0000000  12.0000000  12.0000000
 NucSpn=           0           0           0           0           0           0           1           0           0           0
 AtZEff=  -0.0000000  -0.0000000  -0.0000000  -0.0000000  -0.0000000  -0.0000000  -0.0000000  -0.0000000  -0.0000000  -0.0000000
 NQMom=    0.0000000   0.0000000   0.0000000   0.0000000   0.0000000   0.0000000   0.0000000   0.0000000   0.0000000   0.0000000
 NMagM=    0.0000000   0.0000000   0.0000000   0.0000000   0.0000000   0.0000000   2.7928460   0.0000000   0.0000000   0.0000000
 AtZNuc=   6.0000000   6.0000000   6.0000000   6.0000000  16.0000000   8.0000000   1.0000000   6.0000000   6.0000000   6.0000000

  Atom        11          12          13          14          15          16          17          18          19          20
 IAtWgt=          12          32          16           1          12           1           1          12           1           1
 AtmWgt=  12.0000000  31.9720718  15.9949146   1.0078250  12.0000000   1.0078250   1.0078250  12.0000000   1.0078250   1.0078250
 NucSpn=           0           0           0           1           0           1           1           0           1           1
 AtZEff=  -0.0000000  -0.0000000  -0.0000000  -0.0000000  -0.0000000  -0.0000000  -0.0000000  -0.0000000  -0.0000000  -0.0000000
 NQMom=    0.0000000   0.0000000   0.0000000   0.0000000   0.0000000   0.0000000   0.0000000   0.0000000   0.0000000   0.0000000
 NMagM=    0.0000000   0.0000000   0.0000000   2.7928460   0.0000000   2.7928460   2.7928460   0.0000000   2.7928460   2.7928460
 AtZNuc=   6.0000000  16.0000000   8.0000000   1.0000000   6.0000000   1.0000000   1.0000000   6.0000000   1.0000000   1.0000000

  Atom        21          22          23          24          25          26          27          28          29          30
 IAtWgt=           1          12          12          12          12          32          16           1          12          12
 AtmWgt=   1.0078250  12.0000000  12.0000000  12.0000000  12.0000000  31.9720718  15.9949146   1.0078250  12.0000000  12.0000000
 NucSpn=           1           0           0           0           0           0           0           1           0           0
 AtZEff=  -0.0000000  -0.0000000  -0.0000000  -0.0000000  -0.0000000  -0.0000000  -0.0000000  -0.0000000  -0.0000000  -0.0000000
 NQMom=    0.0000000   0.0000000   0.0000000   0.0000000   0.0000000   0.0000000   0.0000000   0.0000000   0.0000000   0.0000000
 NMagM=    2.7928460   0.0000000   0.0000000   0.0000000   0.0000000   0.0000000   0.0000000   2.7928460   0.0000000   0.0000000
 AtZNuc=   1.0000000   6.0000000   6.0000000   6.0000000   6.0000000  16.0000000   8.0000000   1.0000000   6.0000000   6.0000000

  Atom        31          32          33          34          35          36          37          38          39          40
 IAtWgt=          12          12          32          16           1          12           1           1          12           1
 AtmWgt=  12.0000000  12.0000000  31.9720718  15.9949146   1.0078250  12.0000000   1.0078250   1.0078250  12.0000000   1.0078250
 NucSpn=           0           0           0           0           1           0           1           1           0           1
 AtZEff=  -0.0000000  -0.0000000  -0.0000000  -0.0000000  -0.0000000  -0.0000000  -0.0000000  -0.0000000  -0.0000000  -0.0000000
 NQMom=    0.0000000   0.0000000   0.0000000   0.0000000   0.0000000   0.0000000   0.0000000   0.0000000   0.0000000   0.0000000
 NMagM=    0.0000000   0.0000000   0.0000000   0.0000000   2.7928460   0.0000000   2.7928460   2.7928460   0.0000000   2.7928460
 AtZNuc=   6.0000000   6.0000000  16.0000000   8.0000000   1.0000000   6.0000000   1.0000000   1.0000000   6.0000000   1.0000000

  Atom        41          42          43          44          45          46          47          48          49          50
 IAtWgt=           1           1          12           1           1           1          12           1           1           1
 AtmWgt=   1.0078250   1.0078250  12.0000000   1.0078250   1.0078250   1.0078250  12.0000000   1.0078250   1.0078250   1.0078250
 NucSpn=           1           1           0           1           1           1           0           1           1           1
 AtZEff=  -0.0000000  -0.0000000  -0.0000000  -0.0000000  -0.0000000  -0.0000000  -0.0000000  -0.0000000  -0.0000000  -0.0000000
 NQMom=    0.0000000   0.0000000   0.0000000   0.0000000   0.0000000   0.0000000   0.0000000   0.0000000   0.0000000   0.0000000
 NMagM=    2.7928460   2.7928460   0.0000000   2.7928460   2.7928460   2.7928460   0.0000000   2.7928460   2.7928460   2.7928460
 AtZNuc=   1.0000000   1.0000000   6.0000000   1.0000000   1.0000000   1.0000000   6.0000000   1.0000000   1.0000000   1.0000000

  Atom        51          52          53          54          55          56          57          58
 IAtWgt=          12           1           1           1          12           1           1           1
 AtmWgt=  12.0000000   1.0078250   1.0078250   1.0078250  12.0000000   1.0078250   1.0078250   1.0078250
 NucSpn=           0           1           1           1           0           1           1           1
 AtZEff=  -0.0000000  -0.0000000  -0.0000000  -0.0000000  -0.0000000  -0.0000000  -0.0000000  -0.0000000
 NQMom=    0.0000000   0.0000000   0.0000000   0.0000000   0.0000000   0.0000000   0.0000000   0.0000000
 NMagM=    0.0000000   2.7928460   2.7928460   2.7928460   0.0000000   2.7928460   2.7928460   2.7928460
 AtZNuc=   6.0000000   1.0000000   1.0000000   1.0000000   6.0000000   1.0000000   1.0000000   1.0000000
 Leave Link  101 at Fri Jan 10 14:14:59 2020, MaxMem=  6710886400 cpu:               3.6 elap:               0.5
 (Enter /apps/gaussian/g16-a03/l103.exe)

 GradGradGradGradGradGradGradGradGradGradGradGradGradGradGradGradGradGrad
 Berny optimization.
 Initialization pass.
                           ----------------------------
                           !    Initial Parameters    !
                           ! (Angstroms and Degrees)  !
 --------------------------                            --------------------------
 ! Name  Definition              Value          Derivative Info.                !
 --------------------------------------------------------------------------------
 ! R1    R(1,2)                  1.3842         estimate D2E/DX2                !
 ! R2    R(1,5)                  1.8362         estimate D2E/DX2                !
 ! R3    R(1,8)                  1.4254         estimate D2E/DX2                !
 ! R4    R(2,3)                  1.4297         estimate D2E/DX2                !
 ! R5    R(2,6)                  1.3918         estimate D2E/DX2                !
 ! R6    R(3,4)                  1.362          estimate D2E/DX2                !
 ! R7    R(3,7)                  1.0788         estimate D2E/DX2                !
 ! R8    R(4,5)                  1.7977         estimate D2E/DX2                !
 ! R9    R(4,21)                 1.0755         estimate D2E/DX2                !
 ! R10   R(6,15)                 1.4519         estimate D2E/DX2                !
 ! R11   R(8,9)                  1.3848         estimate D2E/DX2                !
 ! R12   R(8,12)                 1.8336         estimate D2E/DX2                !
 ! R13   R(9,10)                 1.4193         estimate D2E/DX2                !
 ! R14   R(9,13)                 1.3903         estimate D2E/DX2                !
 ! R15   R(10,11)                1.3765         estimate D2E/DX2                !
 ! R16   R(10,14)                1.0784         estimate D2E/DX2                !
 ! R17   R(11,12)                1.827          estimate D2E/DX2                !
 ! R18   R(11,25)                1.4278         estimate D2E/DX2                !
 ! R19   R(13,18)                1.4534         estimate D2E/DX2                !
 ! R20   R(15,16)                1.0927         estimate D2E/DX2                !
 ! R21   R(15,17)                1.0927         estimate D2E/DX2                !
 ! R22   R(15,47)                1.54           estimate D2E/DX2                !
 ! R23   R(18,19)                1.0922         estimate D2E/DX2                !
 ! R24   R(18,20)                1.0922         estimate D2E/DX2                !
 ! R25   R(18,51)                1.54           estimate D2E/DX2                !
 ! R26   R(22,23)                1.3848         estimate D2E/DX2                !
 ! R27   R(22,26)                1.8336         estimate D2E/DX2                !
 ! R28   R(22,29)                1.4254         estimate D2E/DX2                !
 ! R29   R(23,24)                1.4193         estimate D2E/DX2                !
 ! R30   R(23,27)                1.3903         estimate D2E/DX2                !
 ! R31   R(24,25)                1.3765         estimate D2E/DX2                !
 ! R32   R(24,28)                1.0784         estimate D2E/DX2                !
 ! R33   R(25,26)                1.8263         estimate D2E/DX2                !
 ! R34   R(27,36)                1.4539         estimate D2E/DX2                !
 ! R35   R(29,30)                1.3833         estimate D2E/DX2                !
 ! R36   R(29,33)                1.8362         estimate D2E/DX2                !
 ! R37   R(30,31)                1.4297         estimate D2E/DX2                !
 ! R38   R(30,34)                1.3921         estimate D2E/DX2                !
 ! R39   R(31,32)                1.3611         estimate D2E/DX2                !
 ! R40   R(31,35)                1.0788         estimate D2E/DX2                !
 ! R41   R(32,33)                1.7977         estimate D2E/DX2                !
 ! R42   R(32,42)                1.0746         estimate D2E/DX2                !
 ! R43   R(34,39)                1.4519         estimate D2E/DX2                !
 ! R44   R(36,37)                1.0914         estimate D2E/DX2                !
 ! R45   R(36,38)                1.0917         estimate D2E/DX2                !
 ! R46   R(36,43)                1.54           estimate D2E/DX2                !
 ! R47   R(39,40)                1.0913         estimate D2E/DX2                !
 ! R48   R(39,41)                1.0921         estimate D2E/DX2                !
 ! R49   R(39,55)                1.54           estimate D2E/DX2                !
 ! R50   R(43,44)                1.07           estimate D2E/DX2                !
 ! R51   R(43,45)                1.07           estimate D2E/DX2                !
 ! R52   R(43,46)                1.07           estimate D2E/DX2                !
 ! R53   R(47,48)                1.07           estimate D2E/DX2                !
 ! R54   R(47,49)                1.07           estimate D2E/DX2                !
 ! R55   R(47,50)                1.07           estimate D2E/DX2                !
 ! R56   R(51,52)                1.07           estimate D2E/DX2                !
 ! R57   R(51,53)                1.07           estimate D2E/DX2                !
 ! R58   R(51,54)                1.07           estimate D2E/DX2                !
 ! R59   R(55,56)                1.07           estimate D2E/DX2                !
 ! R60   R(55,57)                1.07           estimate D2E/DX2                !
 ! R61   R(55,58)                1.07           estimate D2E/DX2                !
 ! A1    A(2,1,5)              108.9294         estimate D2E/DX2                !
 ! A2    A(2,1,8)              129.0772         estimate D2E/DX2                !
 ! A3    A(5,1,8)              121.9934         estimate D2E/DX2                !
 ! A4    A(1,2,3)              115.6102         estimate D2E/DX2                !
 ! A5    A(1,2,6)              118.8381         estimate D2E/DX2                !
 ! A6    A(3,2,6)              125.5517         estimate D2E/DX2                !
 ! A7    A(2,3,4)              113.2676         estimate D2E/DX2                !
 ! A8    A(2,3,7)              123.7872         estimate D2E/DX2                !
 ! A9    A(4,3,7)              122.9453         estimate D2E/DX2                !
 ! A10   A(3,4,5)              112.3527         estimate D2E/DX2                !
 ! A11   A(3,4,21)             128.5611         estimate D2E/DX2                !
 ! A12   A(5,4,21)             119.0861         estimate D2E/DX2                !
 ! A13   A(1,5,4)               89.8401         estimate D2E/DX2                !
 ! A14   A(2,6,15)             118.7462         estimate D2E/DX2                !
 ! A15   A(1,8,9)              129.2057         estimate D2E/DX2                !
 ! A16   A(1,8,12)             121.8563         estimate D2E/DX2                !
 ! A17   A(9,8,12)             108.938          estimate D2E/DX2                !
 ! A18   A(8,9,10)             116.0363         estimate D2E/DX2                !
 ! A19   A(8,9,13)             118.5741         estimate D2E/DX2                !
 ! A20   A(10,9,13)            125.3896         estimate D2E/DX2                !
 ! A21   A(9,10,11)            114.3525         estimate D2E/DX2                !
 ! A22   A(9,10,14)            123.4367         estimate D2E/DX2                !
 ! A23   A(11,10,14)           122.2108         estimate D2E/DX2                !
 ! A24   A(10,11,12)           110.3952         estimate D2E/DX2                !
 ! A25   A(10,11,25)           129.3658         estimate D2E/DX2                !
 ! A26   A(12,11,25)           120.2391         estimate D2E/DX2                !
 ! A27   A(8,12,11)             90.2781         estimate D2E/DX2                !
 ! A28   A(9,13,18)            118.8254         estimate D2E/DX2                !
 ! A29   A(6,15,16)            111.1029         estimate D2E/DX2                !
 ! A30   A(6,15,17)            111.1029         estimate D2E/DX2                !
 ! A31   A(6,15,47)            105.1715         estimate D2E/DX2                !
 ! A32   A(16,15,17)           109.9853         estimate D2E/DX2                !
 ! A33   A(16,15,47)           109.6842         estimate D2E/DX2                !
 ! A34   A(17,15,47)           109.6842         estimate D2E/DX2                !
 ! A35   A(13,18,19)           111.0314         estimate D2E/DX2                !
 ! A36   A(13,18,20)           111.0314         estimate D2E/DX2                !
 ! A37   A(13,18,51)           105.1241         estimate D2E/DX2                !
 ! A38   A(19,18,20)           110.0556         estimate D2E/DX2                !
 ! A39   A(19,18,51)           109.7433         estimate D2E/DX2                !
 ! A40   A(20,18,51)           109.7433         estimate D2E/DX2                !
 ! A41   A(23,22,26)           108.938          estimate D2E/DX2                !
 ! A42   A(23,22,29)           129.2057         estimate D2E/DX2                !
 ! A43   A(26,22,29)           121.8563         estimate D2E/DX2                !
 ! A44   A(22,23,24)           115.996          estimate D2E/DX2                !
 ! A45   A(22,23,27)           118.5741         estimate D2E/DX2                !
 ! A46   A(24,23,27)           125.4299         estimate D2E/DX2                !
 ! A47   A(23,24,25)           114.3928         estimate D2E/DX2                !
 ! A48   A(23,24,28)           123.3964         estimate D2E/DX2                !
 ! A49   A(25,24,28)           122.2108         estimate D2E/DX2                !
 ! A50   A(11,25,24)           129.3658         estimate D2E/DX2                !
 ! A51   A(11,25,26)           120.2625         estimate D2E/DX2                !
 ! A52   A(24,25,26)           110.3717         estimate D2E/DX2                !
 ! A53   A(22,26,25)            90.3016         estimate D2E/DX2                !
 ! A54   A(23,27,36)           118.7909         estimate D2E/DX2                !
 ! A55   A(22,29,30)           129.0973         estimate D2E/DX2                !
 ! A56   A(22,29,33)           121.9934         estimate D2E/DX2                !
 ! A57   A(30,29,33)           108.9093         estimate D2E/DX2                !
 ! A58   A(29,30,31)           115.6304         estimate D2E/DX2                !
 ! A59   A(29,30,34)           118.8747         estimate D2E/DX2                !
 ! A60   A(31,30,34)           125.495          estimate D2E/DX2                !
 ! A61   A(30,31,32)           113.2818         estimate D2E/DX2                !
 ! A62   A(30,31,35)           123.7872         estimate D2E/DX2                !
 ! A63   A(32,31,35)           122.931          estimate D2E/DX2                !
 ! A64   A(31,32,33)           112.3385         estimate D2E/DX2                !
 ! A65   A(31,32,42)           128.5926         estimate D2E/DX2                !
 ! A66   A(33,32,42)           119.0689         estimate D2E/DX2                !
 ! A67   A(29,33,32)            89.8401         estimate D2E/DX2                !
 ! A68   A(30,34,39)           118.803          estimate D2E/DX2                !
 ! A69   A(27,36,37)           111.0644         estimate D2E/DX2                !
 ! A70   A(27,36,38)           111.032          estimate D2E/DX2                !
 ! A71   A(27,36,43)           105.0529         estimate D2E/DX2                !
 ! A72   A(37,36,38)           110.0679         estimate D2E/DX2                !
 ! A73   A(37,36,43)           109.7769         estimate D2E/DX2                !
 ! A74   A(38,36,43)           109.732          estimate D2E/DX2                !
 ! A75   A(34,39,40)           111.1035         estimate D2E/DX2                !
 ! A76   A(34,39,41)           111.0869         estimate D2E/DX2                !
 ! A77   A(34,39,55)           105.1715         estimate D2E/DX2                !
 ! A78   A(40,39,41)           110.04           estimate D2E/DX2                !
 ! A79   A(40,39,55)           109.6704         estimate D2E/DX2                !
 ! A80   A(41,39,55)           109.655          estimate D2E/DX2                !
 ! A81   A(36,43,44)           109.4712         estimate D2E/DX2                !
 ! A82   A(36,43,45)           109.4712         estimate D2E/DX2                !
 ! A83   A(36,43,46)           109.4712         estimate D2E/DX2                !
 ! A84   A(44,43,45)           109.4713         estimate D2E/DX2                !
 ! A85   A(44,43,46)           109.4712         estimate D2E/DX2                !
 ! A86   A(45,43,46)           109.4712         estimate D2E/DX2                !
 ! A87   A(15,47,48)           109.4712         estimate D2E/DX2                !
 ! A88   A(15,47,49)           109.4712         estimate D2E/DX2                !
 ! A89   A(15,47,50)           109.4712         estimate D2E/DX2                !
 ! A90   A(48,47,49)           109.4713         estimate D2E/DX2                !
 ! A91   A(48,47,50)           109.4712         estimate D2E/DX2                !
 ! A92   A(49,47,50)           109.4712         estimate D2E/DX2                !
 ! A93   A(18,51,52)           109.4712         estimate D2E/DX2                !
 ! A94   A(18,51,53)           109.4712         estimate D2E/DX2                !
 ! A95   A(18,51,54)           109.4712         estimate D2E/DX2                !
 ! A96   A(52,51,53)           109.4713         estimate D2E/DX2                !
 ! A97   A(52,51,54)           109.4712         estimate D2E/DX2                !
 ! A98   A(53,51,54)           109.4712         estimate D2E/DX2                !
 ! A99   A(39,55,56)           109.4712         estimate D2E/DX2                !
 ! A100  A(39,55,57)           109.4712         estimate D2E/DX2                !
 ! A101  A(39,55,58)           109.4712         estimate D2E/DX2                !
 ! A102  A(56,55,57)           109.4713         estimate D2E/DX2                !
 ! A103  A(56,55,58)           109.4712         estimate D2E/DX2                !
 ! A104  A(57,55,58)           109.4712         estimate D2E/DX2                !
 ! D1    D(5,1,2,3)              0.0            estimate D2E/DX2                !
 ! D2    D(5,1,2,6)            180.0            estimate D2E/DX2                !
 ! D3    D(8,1,2,3)            180.0            estimate D2E/DX2                !
 ! D4    D(8,1,2,6)              0.0            estimate D2E/DX2                !
 ! D5    D(2,1,5,4)              0.0            estimate D2E/DX2                !
 ! D6    D(8,1,5,4)            180.0            estimate D2E/DX2                !
 ! D7    D(2,1,8,9)            180.0            estimate D2E/DX2                !
 ! D8    D(2,1,8,12)             0.0            estimate D2E/DX2                !
 ! D9    D(5,1,8,9)              0.0            estimate D2E/DX2                !
 ! D10   D(5,1,8,12)           180.0            estimate D2E/DX2                !
 ! D11   D(1,2,3,4)              0.0            estimate D2E/DX2                !
 ! D12   D(1,2,3,7)            180.0            estimate D2E/DX2                !
 ! D13   D(6,2,3,4)            180.0            estimate D2E/DX2                !
 ! D14   D(6,2,3,7)              0.0            estimate D2E/DX2                !
 ! D15   D(1,2,6,15)           180.0            estimate D2E/DX2                !
 ! D16   D(3,2,6,15)             0.0            estimate D2E/DX2                !
 ! D17   D(2,3,4,5)              0.0            estimate D2E/DX2                !
 ! D18   D(2,3,4,21)           180.0            estimate D2E/DX2                !
 ! D19   D(7,3,4,5)            180.0            estimate D2E/DX2                !
 ! D20   D(7,3,4,21)             0.0            estimate D2E/DX2                !
 ! D21   D(3,4,5,1)              0.0            estimate D2E/DX2                !
 ! D22   D(21,4,5,1)           180.0            estimate D2E/DX2                !
 ! D23   D(2,6,15,16)           61.3971         estimate D2E/DX2                !
 ! D24   D(2,6,15,17)          -61.3971         estimate D2E/DX2                !
 ! D25   D(2,6,15,47)          180.0            estimate D2E/DX2                !
 ! D26   D(1,8,9,10)           180.0            estimate D2E/DX2                !
 ! D27   D(1,8,9,13)             0.0            estimate D2E/DX2                !
 ! D28   D(12,8,9,10)            0.0            estimate D2E/DX2                !
 ! D29   D(12,8,9,13)          180.0            estimate D2E/DX2                !
 ! D30   D(1,8,12,11)          180.0            estimate D2E/DX2                !
 ! D31   D(9,8,12,11)            0.0            estimate D2E/DX2                !
 ! D32   D(8,9,10,11)            0.0            estimate D2E/DX2                !
 ! D33   D(8,9,10,14)          180.0            estimate D2E/DX2                !
 ! D34   D(13,9,10,11)         180.0            estimate D2E/DX2                !
 ! D35   D(13,9,10,14)           0.0            estimate D2E/DX2                !
 ! D36   D(8,9,13,18)          180.0            estimate D2E/DX2                !
 ! D37   D(10,9,13,18)           0.0            estimate D2E/DX2                !
 ! D38   D(9,10,11,12)           0.0            estimate D2E/DX2                !
 ! D39   D(9,10,11,25)         180.0            estimate D2E/DX2                !
 ! D40   D(14,10,11,12)        180.0            estimate D2E/DX2                !
 ! D41   D(14,10,11,25)          0.0            estimate D2E/DX2                !
 ! D42   D(10,11,12,8)           0.0            estimate D2E/DX2                !
 ! D43   D(25,11,12,8)         180.0            estimate D2E/DX2                !
 ! D44   D(10,11,25,24)        180.0            estimate D2E/DX2                !
 ! D45   D(10,11,25,26)          0.0            estimate D2E/DX2                !
 ! D46   D(12,11,25,24)          0.0            estimate D2E/DX2                !
 ! D47   D(12,11,25,26)        180.0            estimate D2E/DX2                !
 ! D48   D(9,13,18,19)         -61.3917         estimate D2E/DX2                !
 ! D49   D(9,13,18,20)          61.3917         estimate D2E/DX2                !
 ! D50   D(9,13,18,51)         180.0            estimate D2E/DX2                !
 ! D51   D(6,15,47,48)         -60.1111         estimate D2E/DX2                !
 ! D52   D(6,15,47,49)          59.8889         estimate D2E/DX2                !
 ! D53   D(6,15,47,50)         179.8889         estimate D2E/DX2                !
 ! D54   D(16,15,47,48)         59.4403         estimate D2E/DX2                !
 ! D55   D(16,15,47,49)        179.4403         estimate D2E/DX2                !
 ! D56   D(16,15,47,50)        -60.5597         estimate D2E/DX2                !
 ! D57   D(17,15,47,48)       -179.6625         estimate D2E/DX2                !
 ! D58   D(17,15,47,49)        -59.6625         estimate D2E/DX2                !
 ! D59   D(17,15,47,50)         60.3375         estimate D2E/DX2                !
 ! D60   D(13,18,51,52)        179.9889         estimate D2E/DX2                !
 ! D61   D(13,18,51,53)        -60.0111         estimate D2E/DX2                !
 ! D62   D(13,18,51,54)         59.9889         estimate D2E/DX2                !
 ! D63   D(19,18,51,52)         60.5183         estimate D2E/DX2                !
 ! D64   D(19,18,51,53)       -179.4817         estimate D2E/DX2                !
 ! D65   D(19,18,51,54)        -59.4817         estimate D2E/DX2                !
 ! D66   D(20,18,51,52)        -60.5405         estimate D2E/DX2                !
 ! D67   D(20,18,51,53)         59.4595         estimate D2E/DX2                !
 ! D68   D(20,18,51,54)        179.4595         estimate D2E/DX2                !
 ! D69   D(26,22,23,24)          0.0            estimate D2E/DX2                !
 ! D70   D(26,22,23,27)        180.0            estimate D2E/DX2                !
 ! D71   D(29,22,23,24)        180.0            estimate D2E/DX2                !
 ! D72   D(29,22,23,27)          0.0            estimate D2E/DX2                !
 ! D73   D(23,22,26,25)          0.0            estimate D2E/DX2                !
 ! D74   D(29,22,26,25)        180.0            estimate D2E/DX2                !
 ! D75   D(23,22,29,30)        180.0            estimate D2E/DX2                !
 ! D76   D(23,22,29,33)          0.0            estimate D2E/DX2                !
 ! D77   D(26,22,29,30)          0.0            estimate D2E/DX2                !
 ! D78   D(26,22,29,33)        180.0            estimate D2E/DX2                !
 ! D79   D(22,23,24,25)          0.0            estimate D2E/DX2                !
 ! D80   D(22,23,24,28)        180.0            estimate D2E/DX2                !
 ! D81   D(27,23,24,25)        180.0            estimate D2E/DX2                !
 ! D82   D(27,23,24,28)          0.0            estimate D2E/DX2                !
 ! D83   D(22,23,27,36)        180.0            estimate D2E/DX2                !
 ! D84   D(24,23,27,36)          0.0            estimate D2E/DX2                !
 ! D85   D(23,24,25,11)        180.0            estimate D2E/DX2                !
 ! D86   D(23,24,25,26)          0.0            estimate D2E/DX2                !
 ! D87   D(28,24,25,11)          0.0            estimate D2E/DX2                !
 ! D88   D(28,24,25,26)        180.0            estimate D2E/DX2                !
 ! D89   D(11,25,26,22)        180.0            estimate D2E/DX2                !
 ! D90   D(24,25,26,22)          0.0            estimate D2E/DX2                !
 ! D91   D(23,27,36,37)         61.3764         estimate D2E/DX2                !
 ! D92   D(23,27,36,38)        -61.4465         estimate D2E/DX2                !
 ! D93   D(23,27,36,43)        180.0            estimate D2E/DX2                !
 ! D94   D(22,29,30,31)        180.0            estimate D2E/DX2                !
 ! D95   D(22,29,30,34)          0.0            estimate D2E/DX2                !
 ! D96   D(33,29,30,31)          0.0            estimate D2E/DX2                !
 ! D97   D(33,29,30,34)        180.0            estimate D2E/DX2                !
 ! D98   D(22,29,33,32)        180.0            estimate D2E/DX2                !
 ! D99   D(30,29,33,32)          0.0            estimate D2E/DX2                !
 ! D100  D(29,30,31,32)          0.0            estimate D2E/DX2                !
 ! D101  D(29,30,31,35)        180.0            estimate D2E/DX2                !
 ! D102  D(34,30,31,32)        180.0            estimate D2E/DX2                !
 ! D103  D(34,30,31,35)          0.0            estimate D2E/DX2                !
 ! D104  D(29,30,34,39)        180.0            estimate D2E/DX2                !
 ! D105  D(31,30,34,39)          0.0            estimate D2E/DX2                !
 ! D106  D(30,31,32,33)          0.0            estimate D2E/DX2                !
 ! D107  D(30,31,32,42)        180.0            estimate D2E/DX2                !
 ! D108  D(35,31,32,33)        180.0            estimate D2E/DX2                !
 ! D109  D(35,31,32,42)          0.0            estimate D2E/DX2                !
 ! D110  D(31,32,33,29)          0.0            estimate D2E/DX2                !
 ! D111  D(42,32,33,29)        180.0            estimate D2E/DX2                !
 ! D112  D(30,34,39,40)        -61.4133         estimate D2E/DX2                !
 ! D113  D(30,34,39,41)         61.4402         estimate D2E/DX2                !
 ! D114  D(30,34,39,55)        180.0            estimate D2E/DX2                !
 ! D115  D(27,36,43,44)        179.8889         estimate D2E/DX2                !
 ! D116  D(27,36,43,45)        -60.1111         estimate D2E/DX2                !
 ! D117  D(27,36,43,46)         59.8889         estimate D2E/DX2                !
 ! D118  D(37,36,43,44)        -60.6246         estimate D2E/DX2                !
 ! D119  D(37,36,43,45)         59.3754         estimate D2E/DX2                !
 ! D120  D(37,36,43,46)        179.3754         estimate D2E/DX2                !
 ! D121  D(38,36,43,44)         60.4636         estimate D2E/DX2                !
 ! D122  D(38,36,43,45)       -179.5364         estimate D2E/DX2                !
 ! D123  D(38,36,43,46)        -59.5364         estimate D2E/DX2                !
 ! D124  D(34,39,55,56)        -60.1111         estimate D2E/DX2                !
 ! D125  D(34,39,55,57)         59.8889         estimate D2E/DX2                !
 ! D126  D(34,39,55,58)        179.8889         estimate D2E/DX2                !
 ! D127  D(40,39,55,56)       -179.6561         estimate D2E/DX2                !
 ! D128  D(40,39,55,57)        -59.6561         estimate D2E/DX2                !
 ! D129  D(40,39,55,58)         60.3439         estimate D2E/DX2                !
 ! D130  D(41,39,55,56)         59.4064         estimate D2E/DX2                !
 ! D131  D(41,39,55,57)        179.4064         estimate D2E/DX2                !
 ! D132  D(41,39,55,58)        -60.5936         estimate D2E/DX2                !
 --------------------------------------------------------------------------------
 Trust Radius=3.00D-01 FncErr=1.00D-07 GrdErr=1.00D-06 EigMax=2.50D+02 EigMin=1.00D-04
 Number of steps in this run=    307 maximum allowed number of steps=    348.
 GradGradGradGradGradGradGradGradGradGradGradGradGradGradGradGradGradGrad

 Leave Link  103 at Fri Jan 10 14:15:05 2020, MaxMem=  6710886400 cpu:               0.2 elap:               0.6
 (Enter /apps/gaussian/g16-a03/l202.exe)
 Stoichiometry    C24H26O4S4
 Framework group  C1[X(C24H26O4S4)]
 Deg. of freedom   168
 Full point group                 C1      NOp   1
 Largest Abelian subgroup         C1      NOp   1
 Largest concise Abelian subgroup C1      NOp   1
                         Standard orientation:                         
 ---------------------------------------------------------------------
 Center     Atomic      Atomic             Coordinates (Angstroms)
 Number     Number       Type             X           Y           Z
 ---------------------------------------------------------------------
      1          6           0        4.672489    0.117566    0.000000
      2          6           0        5.342239   -1.093793    0.000000
      3          6           0        6.769540   -1.010805    0.000000
      4          6           0        7.234039    0.269572    0.000000
      5         16           0        5.904279    1.479249    0.000000
      6          8           0        4.600100   -2.271194    0.000000
      7          1           0        7.420523   -1.871097    0.000000
      8          6           0        3.269362    0.368495    0.000000
      9          6           0        2.596608    1.578865    0.000000
     10          6           0        1.179336    1.503842    0.000000
     11          6           0        0.678830    0.221592    0.000000
     12         16           0        2.042569   -0.994205    0.000000
     13          8           0        3.340737    2.753259    0.000000
     14          1           0        0.538378    2.371098    0.000000
     15          6           0        5.304646   -3.540676    0.000000
     16          1           0        5.922274   -3.647846    0.895000
     17          1           0        5.922274   -3.647846   -0.895000
     18          6           0        2.640205    4.026727    0.000000
     19          1           0        2.023581    4.134893   -0.895000
     20          1           0        2.023581    4.134893    0.895000
     21          1           0        8.253251    0.612994    0.000000
     22          6           0       -3.269267   -0.368547    0.000000
     23          6           0       -2.596513   -1.578917    0.000000
     24          6           0       -1.179237   -1.502894    0.000000
     25          6           0       -0.678731   -0.220644    0.000000
     26         16           0       -2.042474    0.994153    0.000000
     27          8           0       -3.340642   -2.753311    0.000000
     28          1           0       -0.538279   -2.370150    0.000000
     29          6           0       -4.672394   -0.117618    0.000000
     30          6           0       -5.342148    1.092741    0.000000
     31          6           0       -6.769448    1.009753    0.000000
     32          6           0       -7.233944   -0.269624    0.000000
     33         16           0       -5.904184   -1.479301    0.000000
     34          8           0       -4.601005    2.271146    0.000000
     35          1           0       -7.420431    1.870044    0.000000
     36          6           0       -2.639110   -4.026783    0.000000
     37          1           0       -2.022486   -4.134949    0.894000
     38          1           0       -2.023486   -4.134945   -0.895000
     39          6           0       -5.305551    3.540628    0.000000
     40          1           0       -5.922179    3.647794   -0.894000
     41          1           0       -5.922179    3.647794    0.895000
     42          1           0       -8.252156   -0.613050    0.000000
     43          6           0       -3.748713   -5.094669    0.000000
     44          1           0       -3.306161   -6.068858   -0.001956
     45          1           0       -4.354293   -4.979781    0.874628
     46          1           0       -4.356642   -4.977340   -0.872672
     47          6           0        4.200627   -4.614334    0.000000
     48          1           0        3.594456   -4.502605    0.874628
     49          1           0        3.592094   -4.500176   -0.872672
     50          1           0        4.648251   -5.586202   -0.001956
     51          6           0        3.749122    5.095326    0.000000
     52          1           0        3.305944    6.069232   -0.000196
     53          1           0        4.355834    4.979728    0.873749
     54          1           0        4.356069    4.979485   -0.873554
     55          6           0       -4.201531    4.614285    0.000000
     56          1           0       -3.595361    4.502557    0.874628
     57          1           0       -3.592999    4.500128   -0.872672
     58          1           0       -4.649156    5.586154   -0.001956
 ---------------------------------------------------------------------
 Rotational constants (GHZ):           0.1640286           0.0517017           0.0393882
 Leave Link  202 at Fri Jan 10 14:15:05 2020, MaxMem=  6710886400 cpu:               0.1 elap:               0.0
 (Enter /apps/gaussian/g16-a03/l301.exe)
 Standard basis: 6-311G (5D, 7F)
 Ernie: Thresh=  0.10000D-02 Tol=  0.10000D-05 Strict=F.
 There are   526 symmetry adapted cartesian basis functions of A   symmetry.
 There are   526 symmetry adapted basis functions of A   symmetry.
   526 basis functions,  1018 primitive gaussians,   526 cartesian basis functions
   133 alpha electrons      133 beta electrons
       nuclear repulsion energy      3812.9688547320 Hartrees.
 IExCor=  402 DFT=T Ex+Corr=B3LYP ExCW=0 ScaHFX=  0.200000
 ScaDFX=  0.800000  0.720000  1.000000  0.810000 ScalE2=  1.000000  1.000000
 IRadAn=      5 IRanWt=     -1 IRanGd=            0 ICorTp=0 IEmpDi=  4
 NAtoms=   58 NActive=   58 NUniq=   58 SFac= 1.00D+00 NAtFMM=   60 NAOKFM=F Big=F
 Integral buffers will be    131072 words long.
 Raffenetti 2 integral format.
 Two-electron integral symmetry is turned on.
 Leave Link  301 at Fri Jan 10 14:15:06 2020, MaxMem=  6710886400 cpu:               0.6 elap:               0.1
 (Enter /apps/gaussian/g16-a03/l302.exe)
 NPDir=0 NMtPBC=     1 NCelOv=     1 NCel=       1 NClECP=     1 NCelD=      1
         NCelK=      1 NCelE2=     1 NClLst=     1 CellRange=     0.0.
 One-electron integrals computed using PRISM.
 One-electron integral symmetry used in STVInt
 NBasis=   526 RedAO= T EigKep=  2.60D-04  NBF=   526
 NBsUse=   526 1.00D-06 EigRej= -1.00D+00 NBFU=   526
 Precomputing XC quadrature grid using
 IXCGrd= 4 IRadAn=           5 IRanWt=          -1 IRanGd=           0 AccXCQ= 0.00D+00.
 Generated NRdTot=       0 NPtTot=           0 NUsed=           0 NTot=          32
 NSgBfM=   480   480   480   480   480 MxSgAt=    58 MxSgA2=    58.
 Leave Link  302 at Fri Jan 10 14:15:08 2020, MaxMem=  6710886400 cpu:               9.7 elap:               1.2
 (Enter /apps/gaussian/g16-a03/l303.exe)
 DipDrv:  MaxL=1.
 Leave Link  303 at Fri Jan 10 14:15:09 2020, MaxMem=  6710886400 cpu:               0.7 elap:               0.1
 (Enter /apps/gaussian/g16-a03/l401.exe)
 ExpMin= 7.71D-02 ExpMax= 9.34D+04 ExpMxC= 3.17D+03 IAcc=3 IRadAn=         5 AccDes= 0.00D+00
 Harris functional with IExCor=  402 and IRadAn=       5 diagonalized for initial guess.
 HarFok:  IExCor=  402 AccDes= 0.00D+00 IRadAn=         5 IDoV= 1 UseB2=F ITyADJ=14
 ICtDFT=  3500011 ScaDFX=  1.000000  1.000000  1.000000  1.000000
 FoFCou: FMM=F IPFlag=           0 FMFlag=      100000 FMFlg1=           0
         NFxFlg=           0 DoJE=T BraDBF=F KetDBF=T FulRan=T
         wScrn=  0.000000 ICntrl=       500 IOpCl=  0 I1Cent=   200000004 NGrid=           0
         NMat0=    1 NMatS0=      1 NMatT0=    0 NMatD0=    1 NMtDS0=    0 NMtDT0=    0
 Petite list used in FoFCou.
 Harris En= -2823.67607867621    
 JPrj=0 DoOrth=F DoCkMO=F.
 Leave Link  401 at Fri Jan 10 14:15:15 2020, MaxMem=  6710886400 cpu:              46.3 elap:               5.8
 (Enter /apps/gaussian/g16-a03/l502.exe)
 Integral symmetry usage will be decided dynamically.
 Closed shell SCF:
 Using DIIS extrapolation, IDIIS=  1040.
 NGot=  6710886400 LenX=  6710322954 LenY=  6710045752
 Requested convergence on RMS density matrix=1.00D-08 within 128 cycles.
 Requested convergence on MAX density matrix=1.00D-06.
 Requested convergence on             energy=1.00D-06.
 No special actions if energy rises.
 Fock matrices will be formed incrementally for  20 cycles.
 Integral accuracy reduced to 1.0D-05 until final iterations.

 Cycle   1  Pass 0  IDiag  1:
 FoFJK:  IHMeth= 1 ICntrl=       0 DoSepK=F KAlg= 0 I1Cent=           0 FoldK=F
 IRaf= 570000000 NMat=       1 IRICut=       1 DoRegI=T DoRafI=F ISym2E= 0 IDoP0=0 IntGTp=1.
 FoFCou: FMM=F IPFlag=           0 FMFlag=      100000 FMFlg1=           0
         NFxFlg=           0 DoJE=F BraDBF=F KetDBF=F FulRan=T
         wScrn=  0.000000 ICntrl=         0 IOpCl=  0 I1Cent=           0 NGrid=           0
         NMat0=    1 NMatS0=      1 NMatT0=    0 NMatD0=    1 NMtDS0=    0 NMtDT0=    0
 Symmetry not used in FoFCou.
 E= -2822.79893259954    
 DIIS: error= 4.33D-02 at cycle   1 NSaved=   1.
 NSaved= 1 IEnMin= 1 EnMin= -2822.79893259954     IErMin= 1 ErrMin= 4.33D-02
 ErrMax= 4.33D-02  0.00D+00 EMaxC= 1.00D-01 BMatC= 1.02D+00 BMatP= 1.02D+00
 IDIUse=3 WtCom= 5.67D-01 WtEn= 4.33D-01
 Coeff-Com:  0.100D+01
 Coeff-En:   0.100D+01
 Coeff:      0.100D+01
 Gap=     0.068 Goal=   None    Shift=    0.000
 GapD=    0.068 DampG=0.500 DampE=0.500 DampFc=0.2500 IDamp=-1.
 Damping current iteration by 2.50D-01
 RMSDP=4.34D-03 MaxDP=1.38D-01              OVMax= 2.53D-01

 Cycle   2  Pass 0  IDiag  1:
 RMSU=  1.08D-03    CP:  9.98D-01
 E= -2823.14248271308     Delta-E=       -0.343550113544 Rises=F Damp=T
 DIIS: error= 1.96D-02 at cycle   2 NSaved=   2.
 NSaved= 2 IEnMin= 2 EnMin= -2823.14248271308     IErMin= 2 ErrMin= 1.96D-02
 ErrMax= 1.96D-02  0.00D+00 EMaxC= 1.00D-01 BMatC= 2.48D-01 BMatP= 1.02D+00
 IDIUse=3 WtCom= 8.04D-01 WtEn= 1.96D-01
 Coeff-Com: -0.815D+00 0.181D+01
 Coeff-En:   0.000D+00 0.100D+01
 Coeff:     -0.655D+00 0.165D+01
 Gap=     0.092 Goal=   None    Shift=    0.000
 RMSDP=1.69D-03 MaxDP=9.02D-02 DE=-3.44D-01 OVMax= 2.18D-01

 Cycle   3  Pass 0  IDiag  1:
 RMSU=  1.50D-03    CP:  1.02D+00  1.67D+00
 E= -2823.69133006997     Delta-E=       -0.548847356887 Rises=F Damp=F
 DIIS: error= 5.82D-03 at cycle   3 NSaved=   3.
 NSaved= 3 IEnMin= 3 EnMin= -2823.69133006997     IErMin= 3 ErrMin= 5.82D-03
 ErrMax= 5.82D-03  0.00D+00 EMaxC= 1.00D-01 BMatC= 1.07D-02 BMatP= 2.48D-01
 IDIUse=3 WtCom= 9.42D-01 WtEn= 5.82D-02
 Coeff-Com: -0.124D+00 0.341D+00 0.783D+00
 Coeff-En:   0.000D+00 0.000D+00 0.100D+01
 Coeff:     -0.117D+00 0.321D+00 0.795D+00
 Gap=     0.094 Goal=   None    Shift=    0.000
 RMSDP=4.85D-04 MaxDP=3.00D-02 DE=-5.49D-01 OVMax= 4.94D-02

 Cycle   4  Pass 0  IDiag  1:
 RMSU=  3.67D-04    CP:  1.02D+00  1.72D+00  7.91D-01
 E= -2823.69235818483     Delta-E=       -0.001028114862 Rises=F Damp=F
 DIIS: error= 5.34D-03 at cycle   4 NSaved=   4.
 NSaved= 4 IEnMin= 4 EnMin= -2823.69235818483     IErMin= 4 ErrMin= 5.34D-03
 ErrMax= 5.34D-03  0.00D+00 EMaxC= 1.00D-01 BMatC= 9.81D-03 BMatP= 1.07D-02
 IDIUse=3 WtCom= 9.47D-01 WtEn= 5.34D-02
 Coeff-Com:  0.921D-02 0.246D-01 0.501D+00 0.465D+00
 Coeff-En:   0.000D+00 0.000D+00 0.478D+00 0.522D+00
 Coeff:      0.871D-02 0.232D-01 0.500D+00 0.468D+00
 Gap=     0.096 Goal=   None    Shift=    0.000
 RMSDP=2.77D-04 MaxDP=1.00D-02 DE=-1.03D-03 OVMax= 3.02D-02

 Cycle   5  Pass 0  IDiag  1:
 RMSU=  1.42D-04    CP:  1.02D+00  1.64D+00  8.12D-01  4.00D-01
 E= -2823.70167432692     Delta-E=       -0.009316142090 Rises=F Damp=F
 DIIS: error= 1.90D-03 at cycle   5 NSaved=   5.
 NSaved= 5 IEnMin= 5 EnMin= -2823.70167432692     IErMin= 5 ErrMin= 1.90D-03
 ErrMax= 1.90D-03  0.00D+00 EMaxC= 1.00D-01 BMatC= 7.09D-04 BMatP= 9.81D-03
 IDIUse=3 WtCom= 9.81D-01 WtEn= 1.90D-02
 Coeff-Com:  0.170D-01-0.139D-01 0.253D+00 0.282D+00 0.461D+00
 Coeff-En:   0.000D+00 0.000D+00 0.000D+00 0.000D+00 0.100D+01
 Coeff:      0.167D-01-0.136D-01 0.248D+00 0.277D+00 0.472D+00
 Gap=     0.096 Goal=   None    Shift=    0.000
 RMSDP=9.36D-05 MaxDP=4.45D-03 DE=-9.32D-03 OVMax= 1.15D-02

 Cycle   6  Pass 0  IDiag  1:
 RMSU=  5.04D-05    CP:  1.02D+00  1.64D+00  8.26D-01  5.28D-01  5.82D-01
 E= -2823.70232129967     Delta-E=       -0.000646972751 Rises=F Damp=F
 DIIS: error= 5.62D-04 at cycle   6 NSaved=   6.
 NSaved= 6 IEnMin= 6 EnMin= -2823.70232129967     IErMin= 6 ErrMin= 5.62D-04
 ErrMax= 5.62D-04  0.00D+00 EMaxC= 1.00D-01 BMatC= 7.42D-05 BMatP= 7.09D-04
 IDIUse=3 WtCom= 9.94D-01 WtEn= 5.62D-03
 Coeff-Com:  0.974D-02-0.124D-01 0.847D-01 0.995D-01 0.278D+00 0.541D+00
 Coeff-En:   0.000D+00 0.000D+00 0.000D+00 0.000D+00 0.958D-01 0.904D+00
 Coeff:      0.969D-02-0.123D-01 0.843D-01 0.990D-01 0.276D+00 0.543D+00
 Gap=     0.096 Goal=   None    Shift=    0.000
 RMSDP=3.25D-05 MaxDP=1.27D-03 DE=-6.47D-04 OVMax= 5.18D-03

 Cycle   7  Pass 0  IDiag  1:
 RMSU=  1.71D-05    CP:  1.02D+00  1.64D+00  8.29D-01  4.97D-01  6.77D-01
                    CP:  5.89D-01
 E= -2823.70238851880     Delta-E=       -0.000067219128 Rises=F Damp=F
 DIIS: error= 2.07D-04 at cycle   7 NSaved=   7.
 NSaved= 7 IEnMin= 7 EnMin= -2823.70238851880     IErMin= 7 ErrMin= 2.07D-04
 ErrMax= 2.07D-04  0.00D+00 EMaxC= 1.00D-01 BMatC= 1.41D-05 BMatP= 7.42D-05
 IDIUse=3 WtCom= 9.98D-01 WtEn= 2.07D-03
 Coeff-Com:  0.465D-02-0.669D-02 0.272D-01 0.322D-01 0.128D+00 0.366D+00
 Coeff-Com:  0.448D+00
 Coeff-En:   0.000D+00 0.000D+00 0.000D+00 0.000D+00 0.000D+00 0.159D+00
 Coeff-En:   0.841D+00
 Coeff:      0.464D-02-0.667D-02 0.271D-01 0.321D-01 0.128D+00 0.366D+00
 Coeff:      0.449D+00
 Gap=     0.096 Goal=   None    Shift=    0.000
 RMSDP=1.36D-05 MaxDP=9.65D-04 DE=-6.72D-05 OVMax= 1.93D-03

 Cycle   8  Pass 0  IDiag  1:
 RMSU=  6.25D-06    CP:  1.02D+00  1.64D+00  8.31D-01  5.01D-01  6.56D-01
                    CP:  6.99D-01  4.22D-01
 E= -2823.70240250024     Delta-E=       -0.000013981442 Rises=F Damp=F
 DIIS: error= 5.49D-05 at cycle   8 NSaved=   8.
 NSaved= 8 IEnMin= 8 EnMin= -2823.70240250024     IErMin= 8 ErrMin= 5.49D-05
 ErrMax= 5.49D-05  0.00D+00 EMaxC= 1.00D-01 BMatC= 1.40D-06 BMatP= 1.41D-05
 IDIUse=1 WtCom= 1.00D+00 WtEn= 0.00D+00
 Coeff-Com:  0.164D-02-0.258D-02 0.545D-02 0.615D-02 0.400D-01 0.155D+00
 Coeff-Com:  0.286D+00 0.508D+00
 Coeff:      0.164D-02-0.258D-02 0.545D-02 0.615D-02 0.400D-01 0.155D+00
 Coeff:      0.286D+00 0.508D+00
 Gap=     0.096 Goal=   None    Shift=    0.000
 RMSDP=4.41D-06 MaxDP=2.13D-04 DE=-1.40D-05 OVMax= 5.13D-04

 Initial convergence to 1.0D-05 achieved.  Increase integral accuracy.
 Cycle   9  Pass 1  IDiag  1:
 E= -2823.70227536153     Delta-E=        0.000127138711 Rises=F Damp=F
 DIIS: error= 2.19D-04 at cycle   1 NSaved=   1.
 NSaved= 1 IEnMin= 1 EnMin= -2823.70227536153     IErMin= 1 ErrMin= 2.19D-04
 ErrMax= 2.19D-04  0.00D+00 EMaxC= 1.00D-01 BMatC= 3.62D-06 BMatP= 3.62D-06
 IDIUse=3 WtCom= 9.98D-01 WtEn= 2.19D-03
 Coeff-Com:  0.100D+01
 Coeff-En:   0.100D+01
 Coeff:      0.100D+01
 Gap=     0.096 Goal=   None    Shift=    0.000
 RMSDP=4.41D-06 MaxDP=2.13D-04 DE= 1.27D-04 OVMax= 4.36D-04

 Cycle  10  Pass 1  IDiag  1:
 RMSU=  1.38D-04    CP:  1.00D+00
 E= -2823.70227898906     Delta-E=       -0.000003627529 Rises=F Damp=F
 DIIS: error= 4.91D-05 at cycle   2 NSaved=   2.
 NSaved= 2 IEnMin= 2 EnMin= -2823.70227898906     IErMin= 2 ErrMin= 4.91D-05
 ErrMax= 4.91D-05  0.00D+00 EMaxC= 1.00D-01 BMatC= 7.54D-07 BMatP= 3.62D-06
 IDIUse=1 WtCom= 1.00D+00 WtEn= 0.00D+00
 Coeff-Com:  0.211D+00 0.789D+00
 Coeff:      0.211D+00 0.789D+00
 Gap=     0.096 Goal=   None    Shift=    0.000
 RMSDP=7.16D-06 MaxDP=4.80D-04 DE=-3.63D-06 OVMax= 6.79D-04

 Cycle  11  Pass 1  IDiag  1:
 RMSU=  7.06D-06    CP:  1.00D+00  1.01D+00
 E= -2823.70227742846     Delta-E=        0.000001560596 Rises=F Damp=F
 DIIS: error= 8.42D-05 at cycle   3 NSaved=   3.
 NSaved= 3 IEnMin= 2 EnMin= -2823.70227898906     IErMin= 2 ErrMin= 4.91D-05
 ErrMax= 8.42D-05  0.00D+00 EMaxC= 1.00D-01 BMatC= 2.18D-06 BMatP= 7.54D-07
 IDIUse=1 WtCom= 1.00D+00 WtEn= 0.00D+00
 Coeff-Com: -0.280D-02 0.632D+00 0.371D+00
 Coeff:     -0.280D-02 0.632D+00 0.371D+00
 Gap=     0.096 Goal=   None    Shift=    0.000
 RMSDP=4.58D-06 MaxDP=3.00D-04 DE= 1.56D-06 OVMax= 4.50D-04

 Cycle  12  Pass 1  IDiag  1:
 RMSU=  7.18D-07    CP:  1.00D+00  1.01D+00  3.64D-01
 E= -2823.70227977017     Delta-E=       -0.000002341706 Rises=F Damp=F
 DIIS: error= 8.59D-06 at cycle   4 NSaved=   4.
 NSaved= 4 IEnMin= 4 EnMin= -2823.70227977017     IErMin= 4 ErrMin= 8.59D-06
 ErrMax= 8.59D-06  0.00D+00 EMaxC= 1.00D-01 BMatC= 2.75D-08 BMatP= 7.54D-07
 IDIUse=1 WtCom= 1.00D+00 WtEn= 0.00D+00
 Coeff-Com: -0.480D-02 0.411D+00 0.246D+00 0.347D+00
 Coeff:     -0.480D-02 0.411D+00 0.246D+00 0.347D+00
 Gap=     0.096 Goal=   None    Shift=    0.000
 RMSDP=4.44D-07 MaxDP=1.93D-05 DE=-2.34D-06 OVMax= 6.00D-05

 Cycle  13  Pass 1  IDiag  1:
 RMSU=  2.48D-07    CP:  1.00D+00  1.01D+00  3.83D-01  5.25D-01
 E= -2823.70227979727     Delta-E=       -0.000000027102 Rises=F Damp=F
 DIIS: error= 1.10D-06 at cycle   5 NSaved=   5.
 NSaved= 5 IEnMin= 5 EnMin= -2823.70227979727     IErMin= 5 ErrMin= 1.10D-06
 ErrMax= 1.10D-06  0.00D+00 EMaxC= 1.00D-01 BMatC= 4.56D-10 BMatP= 2.75D-08
 IDIUse=1 WtCom= 1.00D+00 WtEn= 0.00D+00
 Coeff-Com: -0.248D-02 0.197D+00 0.117D+00 0.192D+00 0.496D+00
 Coeff:     -0.248D-02 0.197D+00 0.117D+00 0.192D+00 0.496D+00
 Gap=     0.096 Goal=   None    Shift=    0.000
 RMSDP=8.43D-08 MaxDP=2.96D-06 DE=-2.71D-08 OVMax= 9.97D-06

 Cycle  14  Pass 1  IDiag  1:
 RMSU=  5.78D-08    CP:  1.00D+00  1.01D+00  3.78D-01  5.67D-01  8.40D-01
 E= -2823.70227979766     Delta-E=       -0.000000000389 Rises=F Damp=F
 DIIS: error= 4.75D-07 at cycle   6 NSaved=   6.
 NSaved= 6 IEnMin= 6 EnMin= -2823.70227979766     IErMin= 6 ErrMin= 4.75D-07
 ErrMax= 4.75D-07  0.00D+00 EMaxC= 1.00D-01 BMatC= 6.81D-11 BMatP= 4.56D-10
 IDIUse=1 WtCom= 1.00D+00 WtEn= 0.00D+00
 Coeff-Com: -0.661D-03 0.476D-01 0.277D-01 0.581D-01 0.304D+00 0.564D+00
 Coeff:     -0.661D-03 0.476D-01 0.277D-01 0.581D-01 0.304D+00 0.564D+00
 Gap=     0.096 Goal=   None    Shift=    0.000
 RMSDP=3.60D-08 MaxDP=1.12D-06 DE=-3.89D-10 OVMax= 5.08D-06

 Cycle  15  Pass 1  IDiag  1:
 RMSU=  3.05D-08    CP:  1.00D+00  1.01D+00  3.77D-01  5.57D-01  8.71D-01
                    CP:  7.80D-01
 E= -2823.70227979774     Delta-E=       -0.000000000076 Rises=F Damp=F
 DIIS: error= 2.05D-07 at cycle   7 NSaved=   7.
 NSaved= 7 IEnMin= 7 EnMin= -2823.70227979774     IErMin= 7 ErrMin= 2.05D-07
 ErrMax= 2.05D-07  0.00D+00 EMaxC= 1.00D-01 BMatC= 1.10D-11 BMatP= 6.81D-11
 IDIUse=1 WtCom= 1.00D+00 WtEn= 0.00D+00
 Coeff-Com: -0.133D-03 0.795D-02 0.432D-02 0.147D-01 0.126D+00 0.350D+00
 Coeff-Com:  0.497D+00
 Coeff:     -0.133D-03 0.795D-02 0.432D-02 0.147D-01 0.126D+00 0.350D+00
 Coeff:      0.497D+00
 Gap=     0.096 Goal=   None    Shift=    0.000
 RMSDP=1.20D-08 MaxDP=3.90D-07 DE=-7.64D-11 OVMax= 1.89D-06

 Cycle  16  Pass 1  IDiag  1:
 RMSU=  6.59D-09    CP:  1.00D+00  1.01D+00  3.77D-01  5.63D-01  8.72D-01
                    CP:  8.29D-01  7.18D-01
 E= -2823.70227979777     Delta-E=       -0.000000000035 Rises=F Damp=F
 DIIS: error= 4.78D-08 at cycle   8 NSaved=   8.
 NSaved= 8 IEnMin= 8 EnMin= -2823.70227979777     IErMin= 8 ErrMin= 4.78D-08
 ErrMax= 4.78D-08  0.00D+00 EMaxC= 1.00D-01 BMatC= 1.17D-12 BMatP= 1.10D-11
 IDIUse=1 WtCom= 1.00D+00 WtEn= 0.00D+00
 Coeff-Com:  0.408D-04-0.403D-02-0.256D-02-0.165D-02 0.220D-01 0.110D+00
 Coeff-Com:  0.285D+00 0.591D+00
 Coeff:      0.408D-04-0.403D-02-0.256D-02-0.165D-02 0.220D-01 0.110D+00
 Coeff:      0.285D+00 0.591D+00
 Gap=     0.096 Goal=   None    Shift=    0.000
 RMSDP=3.41D-09 MaxDP=1.72D-07 DE=-3.55D-11 OVMax= 3.98D-07

 SCF Done:  E(RB3LYP) =  -2823.70227980     A.U. after   16 cycles
            NFock= 16  Conv=0.34D-08     -V/T= 2.0021
 KE= 2.817693471835D+03 PE=-1.428257158895D+04 EE= 4.828206982581D+03
 Leave Link  502 at Fri Jan 10 14:17:21 2020, MaxMem=  6710886400 cpu:            1012.8 elap:             126.6
 (Enter /apps/gaussian/g16-a03/l601.exe)
 Copying SCF densities to generalized density rwf, IOpCl= 0 IROHF=0.

 **********************************************************************

            Population analysis using the SCF density.

 **********************************************************************

 Orbital symmetries:
       Occupied  (A) (A) (A) (A) (A) (A) (A) (A) (A) (A) (A) (A)
                 (A) (A) (A) (A) (A) (A) (A) (A) (A) (A) (A) (A)
                 (A) (A) (A) (A) (A) (A) (A) (A) (A) (A) (A) (A)
                 (A) (A) (A) (A) (A) (A) (A) (A) (A) (A) (A) (A)
                 (A) (A) (A) (A) (A) (A) (A) (A) (A) (A) (A) (A)
                 (A) (A) (A) (A) (A) (A) (A) (A) (A) (A) (A) (A)
                 (A) (A) (A) (A) (A) (A) (A) (A) (A) (A) (A) (A)
                 (A) (A) (A) (A) (A) (A) (A) (A) (A) (A) (A) (A)
                 (A) (A) (A) (A) (A) (A) (A) (A) (A) (A) (A) (A)
                 (A) (A) (A) (A) (A) (A) (A) (A) (A) (A) (A) (A)
                 (A) (A) (A) (A) (A) (A) (A) (A) (A) (A) (A) (A)
                 (A)
       Virtual   (A) (A) (A) (A) (A) (A) (A) (A) (A) (A) (A) (A)
                 (A) (A) (A) (A) (A) (A) (A) (A) (A) (A) (A) (A)
                 (A) (A) (A) (A) (A) (A) (A) (A) (A) (A) (A) (A)
                 (A) (A) (A) (A) (A) (A) (A) (A) (A) (A) (A) (A)
                 (A) (A) (A) (A) (A) (A) (A) (A) (A) (A) (A) (A)
                 (A) (A) (A) (A) (A) (A) (A) (A) (A) (A) (A) (A)
                 (A) (A) (A) (A) (A) (A) (A) (A) (A) (A) (A) (A)
                 (A) (A) (A) (A) (A) (A) (A) (A) (A) (A) (A) (A)
                 (A) (A) (A) (A) (A) (A) (A) (A) (A) (A) (A) (A)
                 (A) (A) (A) (A) (A) (A) (A) (A) (A) (A) (A) (A)
                 (A) (A) (A) (A) (A) (A) (A) (A) (A) (A) (A) (A)
                 (A) (A) (A) (A) (A) (A) (A) (A) (A) (A) (A) (A)
                 (A) (A) (A) (A) (A) (A) (A) (A) (A) (A) (A) (A)
                 (A) (A) (A) (A) (A) (A) (A) (A) (A) (A) (A) (A)
                 (A) (A) (A) (A) (A) (A) (A) (A) (A) (A) (A) (A)
                 (A) (A) (A) (A) (A) (A) (A) (A) (A) (A) (A) (A)
                 (A) (A) (A) (A) (A) (A) (A) (A) (A) (A) (A) (A)
                 (A) (A) (A) (A) (A) (A) (A) (A) (A) (A) (A) (A)
                 (A) (A) (A) (A) (A) (A) (A) (A) (A) (A) (A) (A)
                 (A) (A) (A) (A) (A) (A) (A) (A) (A) (A) (A) (A)
                 (A) (A) (A) (A) (A) (A) (A) (A) (A) (A) (A) (A)
                 (A) (A) (A) (A) (A) (A) (A) (A) (A) (A) (A) (A)
                 (A) (A) (A) (A) (A) (A) (A) (A) (A) (A) (A) (A)
                 (A) (A) (A) (A) (A) (A) (A) (A) (A) (A) (A) (A)
                 (A) (A) (A) (A) (A) (A) (A) (A) (A) (A) (A) (A)
                 (A) (A) (A) (A) (A) (A) (A) (A) (A) (A) (A) (A)
                 (A) (A) (A) (A) (A) (A) (A) (A) (A) (A) (A) (A)
                 (A) (A) (A) (A) (A) (A) (A) (A) (A) (A) (A) (A)
                 (A) (A) (A) (A) (A) (A) (A) (A) (A) (A) (A) (A)
                 (A) (A) (A) (A) (A) (A) (A) (A) (A) (A) (A) (A)
                 (A) (A) (A) (A) (A) (A) (A) (A) (A) (A) (A) (A)
                 (A) (A) (A) (A) (A) (A) (A) (A) (A) (A) (A) (A)
                 (A) (A) (A) (A) (A) (A) (A) (A) (A)
 The electronic state is 1-A.
 Alpha  occ. eigenvalues --  -88.87670 -88.87660 -88.87435 -88.87433 -19.15463
 Alpha  occ. eigenvalues --  -19.15446 -19.15273 -19.15271 -10.24224 -10.24221
 Alpha  occ. eigenvalues --  -10.24199 -10.24188 -10.23864 -10.23841 -10.23598
 Alpha  occ. eigenvalues --  -10.23587 -10.22140 -10.22099 -10.21796 -10.21793
 Alpha  occ. eigenvalues --  -10.21735 -10.21728 -10.20606 -10.20589 -10.18572
 Alpha  occ. eigenvalues --  -10.18559 -10.18329 -10.18326 -10.16454 -10.16449
 Alpha  occ. eigenvalues --  -10.16158 -10.16155  -7.96325  -7.96316  -7.96089
 Alpha  occ. eigenvalues --   -7.96089  -5.92661  -5.92652  -5.92446  -5.92446
 Alpha  occ. eigenvalues --   -5.92252  -5.92243  -5.92042  -5.92041  -5.91688
 Alpha  occ. eigenvalues --   -5.91678  -5.91414  -5.91414  -1.06512  -1.06489
 Alpha  occ. eigenvalues --   -1.06353  -1.06343  -0.89425  -0.88515  -0.87641
 Alpha  occ. eigenvalues --   -0.86371  -0.79937  -0.78594  -0.78540  -0.77942
 Alpha  occ. eigenvalues --   -0.76946  -0.76541  -0.73223  -0.73010  -0.72450
 Alpha  occ. eigenvalues --   -0.72078  -0.71208  -0.69420  -0.65270  -0.64273
 Alpha  occ. eigenvalues --   -0.64222  -0.63501  -0.62075  -0.60105  -0.58595
 Alpha  occ. eigenvalues --   -0.57112  -0.55707  -0.55345  -0.55196  -0.54045
 Alpha  occ. eigenvalues --   -0.53806  -0.52475  -0.49500  -0.49421  -0.49410
 Alpha  occ. eigenvalues --   -0.49165  -0.49150  -0.47971  -0.46459  -0.46379
 Alpha  occ. eigenvalues --   -0.45951  -0.44861  -0.44037  -0.43420  -0.43375
 Alpha  occ. eigenvalues --   -0.42192  -0.41729  -0.40691  -0.40446  -0.40314
 Alpha  occ. eigenvalues --   -0.40229  -0.40088  -0.40014  -0.39919  -0.39480
 Alpha  occ. eigenvalues --   -0.39459  -0.39231  -0.38179  -0.38160  -0.37840
 Alpha  occ. eigenvalues --   -0.37375  -0.36508  -0.36256  -0.36231  -0.35218
 Alpha  occ. eigenvalues --   -0.34293  -0.34008  -0.33744  -0.32490  -0.32189
 Alpha  occ. eigenvalues --   -0.32069  -0.32012  -0.31928  -0.30980  -0.30924
 Alpha  occ. eigenvalues --   -0.28912  -0.26512  -0.24180  -0.24129  -0.23618
 Alpha  occ. eigenvalues --   -0.23472  -0.19927  -0.16547
 Alpha virt. eigenvalues --   -0.06947  -0.02774  -0.00168   0.00731   0.01077
 Alpha virt. eigenvalues --    0.02268   0.02562   0.03694   0.04132   0.04218
 Alpha virt. eigenvalues --    0.04501   0.04650   0.04930   0.05605   0.06302
 Alpha virt. eigenvalues --    0.06686   0.06913   0.07286   0.08413   0.08641
 Alpha virt. eigenvalues --    0.09033   0.09208   0.09226   0.09270   0.09600
 Alpha virt. eigenvalues --    0.10044   0.10086   0.10120   0.10711   0.11353
 Alpha virt. eigenvalues --    0.11725   0.11758   0.12080   0.12188   0.12218
 Alpha virt. eigenvalues --    0.12568   0.12821   0.13305   0.13337   0.13602
 Alpha virt. eigenvalues --    0.13989   0.14346   0.14398   0.14652   0.16103
 Alpha virt. eigenvalues --    0.17617   0.17691   0.18866   0.19070   0.19544
 Alpha virt. eigenvalues --    0.19571   0.20030   0.20524   0.20806   0.21355
 Alpha virt. eigenvalues --    0.21585   0.21823   0.22767   0.22867   0.22907
 Alpha virt. eigenvalues --    0.24412   0.24931   0.25199   0.26503   0.26704
 Alpha virt. eigenvalues --    0.27408   0.28069   0.29104   0.29566   0.30377
 Alpha virt. eigenvalues --    0.30404   0.30643   0.30691   0.31392   0.32028
 Alpha virt. eigenvalues --    0.32565   0.33899   0.34383   0.34452   0.35817
 Alpha virt. eigenvalues --    0.37018   0.37762   0.37800   0.37899   0.38204
 Alpha virt. eigenvalues --    0.38502   0.38768   0.38786   0.39060   0.39659
 Alpha virt. eigenvalues --    0.40374   0.40688   0.41063   0.41529   0.42269
 Alpha virt. eigenvalues --    0.42967   0.43057   0.43239   0.43421   0.43589
 Alpha virt. eigenvalues --    0.44102   0.44757   0.45153   0.45304   0.45524
 Alpha virt. eigenvalues --    0.45757   0.45863   0.47029   0.47534   0.48049
 Alpha virt. eigenvalues --    0.48265   0.48671   0.49138   0.49977   0.50430
 Alpha virt. eigenvalues --    0.50449   0.51168   0.51387   0.51623   0.52328
 Alpha virt. eigenvalues --    0.52686   0.53054   0.53196   0.54056   0.54248
 Alpha virt. eigenvalues --    0.55825   0.55838   0.56062   0.56325   0.56663
 Alpha virt. eigenvalues --    0.57584   0.57601   0.58018   0.58214   0.58498
 Alpha virt. eigenvalues --    0.59413   0.59495   0.59658   0.60051   0.60755
 Alpha virt. eigenvalues --    0.60897   0.61073   0.61278   0.61291   0.61436
 Alpha virt. eigenvalues --    0.61695   0.61760   0.61989   0.62852   0.62973
 Alpha virt. eigenvalues --    0.63008   0.64496   0.64592   0.65118   0.65465
 Alpha virt. eigenvalues --    0.65801   0.66045   0.66049   0.66557   0.67243
 Alpha virt. eigenvalues --    0.67562   0.68792   0.69085   0.69949   0.70239
 Alpha virt. eigenvalues --    0.73350   0.74086   0.74920   0.75918   0.76069
 Alpha virt. eigenvalues --    0.76523   0.77719   0.77934   0.78545   0.79458
 Alpha virt. eigenvalues --    0.79899   0.80495   0.80922   0.82032   0.82326
 Alpha virt. eigenvalues --    0.82793   0.85366   0.86349   0.87262   0.88191
 Alpha virt. eigenvalues --    0.88195   0.89576   0.90229   0.90321   0.93808
 Alpha virt. eigenvalues --    0.93974   0.94854   0.96009   0.97050   0.97176
 Alpha virt. eigenvalues --    0.97260   0.97297   0.98773   1.00203   1.00291
 Alpha virt. eigenvalues --    1.00367   1.00483   1.02308   1.02310   1.02994
 Alpha virt. eigenvalues --    1.06121   1.07663   1.13789   1.14404   1.18189
 Alpha virt. eigenvalues --    1.19146   1.19504   1.20668   1.25750   1.27656
 Alpha virt. eigenvalues --    1.33727   1.34729   1.36841   1.38722   1.52149
 Alpha virt. eigenvalues --    1.53434   1.55728   1.57381   1.72824   1.73138
 Alpha virt. eigenvalues --    1.75082   1.76042   1.76061   1.76543   1.77251
 Alpha virt. eigenvalues --    1.79399   1.81939   1.81948   1.89361   1.94095
 Alpha virt. eigenvalues --    2.22689   2.22811   2.23194   2.23207   2.23943
 Alpha virt. eigenvalues --    2.23968   2.24376   2.24393   2.24465   2.24558
 Alpha virt. eigenvalues --    2.24666   2.24675   2.24826   2.24936   2.27566
 Alpha virt. eigenvalues --    2.27775   2.27949   2.28185   2.30207   2.30414
 Alpha virt. eigenvalues --    2.31003   2.31074   2.34838   2.34937   2.38588
 Alpha virt. eigenvalues --    2.38828   2.52120   2.52623   2.53317   2.53453
 Alpha virt. eigenvalues --    2.54882   2.56338   2.58941   2.63689   2.66855
 Alpha virt. eigenvalues --    2.70363   2.72058   2.72331   2.73177   2.73211
 Alpha virt. eigenvalues --    2.74339   2.76303   2.77012   2.77119   2.78325
 Alpha virt. eigenvalues --    2.78599   2.79640   2.79983   2.81174   2.82218
 Alpha virt. eigenvalues --    2.82273   2.82428   2.83038   2.83442   2.84189
 Alpha virt. eigenvalues --    2.84687   2.84974   2.85794   2.86179   2.86637
 Alpha virt. eigenvalues --    2.86648   2.86837   2.87053   2.89006   2.89725
 Alpha virt. eigenvalues --    2.93399   2.94044   2.97992   2.98072   2.98266
 Alpha virt. eigenvalues --    3.01221   3.01536   3.01572   3.01949   3.02019
 Alpha virt. eigenvalues --    3.02231   3.03324   3.04573   3.04831   3.05393
 Alpha virt. eigenvalues --    3.07325   3.07784   3.09366   3.09389   3.11696
 Alpha virt. eigenvalues --    3.12627   3.17879   3.18062   3.19558   3.19889
 Alpha virt. eigenvalues --    3.21141   3.22361   3.25121   3.26128   3.26374
 Alpha virt. eigenvalues --    3.26840   3.30883   3.34411   4.87411   4.87477
 Alpha virt. eigenvalues --    4.89544   4.89685   5.01790   5.01861   5.02378
 Alpha virt. eigenvalues --    5.02726   5.18445   5.18595   5.19960   5.20633
 Alpha virt. eigenvalues --    7.62211   7.62792   7.63599   7.64012  17.17663
 Alpha virt. eigenvalues --   17.18398  17.19841  17.20945  17.35271  17.35298
 Alpha virt. eigenvalues --   17.38330  17.38761  17.41802  17.44172  17.46885
 Alpha virt. eigenvalues --   17.47846  23.13610  23.17678  23.23008  23.26781
 Alpha virt. eigenvalues --   23.28985  23.33290  23.33920  23.34877  23.35072
 Alpha virt. eigenvalues --   23.35897  23.40650  23.48010  23.50158  23.50300
 Alpha virt. eigenvalues --   23.50517  23.50573  23.54572  23.59697  23.65583
 Alpha virt. eigenvalues --   23.68170  23.74568  23.74709  23.80830  23.82522
 Alpha virt. eigenvalues --   49.89127  49.89347  49.90095  49.90169 188.75240
 Alpha virt. eigenvalues --  188.76036 188.76952 188.77592
          Condensed to atoms (all electrons):
 Mulliken charges:
               1
     1  C   -0.380680
     2  C    0.365429
     3  C   -0.068496
     4  C   -0.471113
     5  S    0.432690
     6  O   -0.533178
     7  H    0.183296
     8  C   -0.329729
     9  C    0.320326
    10  C   -0.097756
    11  C   -0.348237
    12  S    0.513339
    13  O   -0.536427
    14  H    0.204496
    15  C   -0.123676
    16  H    0.177895
    17  H    0.177891
    18  C   -0.127770
    19  H    0.179730
    20  H    0.179732
    21  H    0.188637
    22  C   -0.330090
    23  C    0.320651
    24  C   -0.097886
    25  C   -0.348323
    26  S    0.513347
    27  O   -0.536380
    28  H    0.204394
    29  C   -0.380716
    30  C    0.365713
    31  C   -0.068285
    32  C   -0.471301
    33  S    0.432446
    34  O   -0.533413
    35  H    0.183276
    36  C   -0.128021
    37  H    0.179943
    38  H    0.179918
    39  C   -0.123689
    40  H    0.178087
    41  H    0.177929
    42  H    0.188683
    43  C   -0.526404
    44  H    0.174744
    45  H    0.199755
    46  H    0.199860
    47  C   -0.527691
    48  H    0.199082
    49  H    0.199166
    50  H    0.175176
    51  C   -0.526404
    52  H    0.174819
    53  H    0.199774
    54  H    0.199782
    55  C   -0.527667
    56  H    0.199063
    57  H    0.199125
    58  H    0.175139
 Sum of Mulliken charges =  -0.00000
 Mulliken charges with hydrogens summed into heavy atoms:
               1
     1  C   -0.380680
     2  C    0.365429
     3  C    0.114800
     4  C   -0.282476
     5  S    0.432690
     6  O   -0.533178
     8  C   -0.329729
     9  C    0.320326
    10  C    0.106740
    11  C   -0.348237
    12  S    0.513339
    13  O   -0.536427
    15  C    0.232110
    18  C    0.231692
    22  C   -0.330090
    23  C    0.320651
    24  C    0.106507
    25  C   -0.348323
    26  S    0.513347
    27  O   -0.536380
    29  C   -0.380716
    30  C    0.365713
    31  C    0.114990
    32  C   -0.282619
    33  S    0.432446
    34  O   -0.533413
    36  C    0.231840
    39  C    0.232327
    43  C    0.047956
    47  C    0.045733
    51  C    0.047972
    55  C    0.045660
 Electronic spatial extent (au):  <R**2>=          25264.3827
 Charge=             -0.0000 electrons
 Dipole moment (field-independent basis, Debye):
    X=              0.0001    Y=             -0.0013    Z=             -0.0006  Tot=              0.0014
 Quadrupole moment (field-independent basis, Debye-Ang):
   XX=           -186.3878   YY=           -175.3816   ZZ=           -229.1518
   XY=            -22.5136   XZ=              0.0042   YZ=             -0.0013
 Traceless Quadrupole moment (field-independent basis, Debye-Ang):
   XX=             10.5859   YY=             21.5921   ZZ=            -32.1781
   XY=            -22.5136   XZ=              0.0042   YZ=             -0.0013
 Octapole moment (field-independent basis, Debye-Ang**2):
  XXX=             -0.2664  YYY=             -0.0144  ZZZ=              0.0085  XYY=              0.0628
  XXY=              0.0871  XXZ=             -0.0280  XZZ=             -0.0556  YZZ=              0.0066
  YYZ=             -0.0177  XYZ=              0.0089
 Hexadecapole moment (field-independent basis, Debye-Ang**3):
 XXXX=         -22307.4078 YYYY=          -7759.5780 ZZZZ=           -320.8761 XXXY=          -1040.2646
 XXXZ=              0.1793 YYYX=           -230.9728 YYYZ=             -0.0053 ZZZX=              0.0059
 ZZZY=             -0.0363 XXYY=          -4985.1292 XXZZ=          -4618.1034 YYZZ=          -1498.3734
 XXYZ=             -0.0470 YYXZ=              0.0700 ZZXY=            -12.4148
 N-N= 3.812968854732D+03 E-N=-1.428257159283D+04  KE= 2.817693471835D+03
 No NMR shielding tensors so no spin-rotation constants.
 Leave Link  601 at Fri Jan 10 14:17:22 2020, MaxMem=  6710886400 cpu:               2.2 elap:               0.3
 (Enter /apps/gaussian/g16-a03/l701.exe)
 ... and contract with generalized density number  0.
 Compute integral first derivatives.
 Leave Link  701 at Fri Jan 10 14:17:24 2020, MaxMem=  6710886400 cpu:               2.7 elap:               0.4
 (Enter /apps/gaussian/g16-a03/l702.exe)
 L702 exits ... SP integral derivatives will be done elsewhere.
 Leave Link  702 at Fri Jan 10 14:17:24 2020, MaxMem=  6710886400 cpu:               0.2 elap:               0.1
 (Enter /apps/gaussian/g16-a03/l703.exe)
 Integral derivatives from FoFJK, PRISM(SPDF).
 Compute integral first derivatives, UseDBF=F ICtDFT=           0.
 Calling FoFJK, ICntrl=      2127 FMM=F ISym2X=0 I1Cent= 0 IOpClX= 0 NMat=1 NMatS=1 NMatT=0.
 FoFJK:  IHMeth= 1 ICntrl=    2127 DoSepK=F KAlg= 0 I1Cent=           0 FoldK=F
 IRaf=         0 NMat=       1 IRICut=       1 DoRegI=T DoRafI=F ISym2E= 0 IDoP0=0 IntGTp=1.
 FoFCou: FMM=F IPFlag=           0 FMFlag=      100000 FMFlg1=         800
         NFxFlg=           0 DoJE=F BraDBF=F KetDBF=F FulRan=T
         wScrn=  0.000000 ICntrl=      2127 IOpCl=  0 I1Cent=           0 NGrid=           0
         NMat0=    1 NMatS0=      1 NMatT0=    0 NMatD0=    1 NMtDS0=    0 NMtDT0=    0
 Symmetry not used in FoFCou.
 Leave Link  703 at Fri Jan 10 14:17:56 2020, MaxMem=  6710886400 cpu:             247.0 elap:              31.2
 (Enter /apps/gaussian/g16-a03/l716.exe)
 Dipole        = 5.69221217D-05-4.99372124D-04-2.21454098D-04
 ***** Axes restored to original set *****
 -------------------------------------------------------------------
 Center     Atomic                   Forces (Hartrees/Bohr)
 Number     Number              X              Y              Z
 -------------------------------------------------------------------
      1        6           0.000525682    0.000093560    0.000000003
      2        6          -0.001197447   -0.001959838   -0.000002970
      3        6           0.000788433   -0.000716740    0.000000226
      4        6           0.000094440    0.000617670    0.000000079
      5       16           0.000303411    0.000147553    0.000000194
      6        8           0.004080722   -0.004503891   -0.000004917
      7        1          -0.000283436   -0.000198392   -0.000000114
      8        6          -0.000324611    0.000166344    0.000000061
      9        6           0.000534329    0.001588326   -0.000000181
     10        6          -0.000029684    0.000591281    0.000000036
     11        6           0.000460626   -0.000261548    0.000000354
     12       16          -0.000392456   -0.000067564   -0.000000510
     13        8          -0.003898832    0.003989656   -0.000000524
     14        1           0.000047242   -0.000128530   -0.000000168
     15        6          -0.012605829    0.017346285    0.000012038
     16        1           0.001549406   -0.003594497    0.000354932
     17        1           0.001542770   -0.003602630   -0.000347258
     18        6           0.013050099   -0.016964989    0.000001125
     19        1          -0.001716508    0.003579307   -0.000248435
     20        1          -0.001717166    0.003578508    0.000249250
     21        1          -0.000387197    0.000135172   -0.000000006
     22        6           0.000347054   -0.000164433    0.000000675
     23        6          -0.000502995   -0.001859980   -0.000003090
     24        6           0.000079284   -0.000289510    0.000000644
     25        6          -0.000492961    0.000439295   -0.000000086
     26       16           0.000208694   -0.000169250   -0.000000107
     27        8           0.004231765   -0.003894841   -0.000039733
     28        1          -0.000004739    0.000121399    0.000000812
     29        6          -0.000271020    0.000392056   -0.000000343
     30        6           0.000953042    0.000975305   -0.000002321
     31        6          -0.000698256   -0.000018455    0.000000307
     32        6           0.000290633   -0.000050236    0.000000702
     33       16          -0.000279057    0.000045757   -0.000000708
     34        8          -0.003904663    0.004734524    0.000008312
     35        1           0.000311836    0.000156060   -0.000000678
     36        6          -0.013763911    0.016806511    0.000238925
     37        1           0.001943495   -0.003571847   -0.000176776
     38        1           0.001913494   -0.003590800    0.000035816
     39        6           0.013223169   -0.017175422   -0.000423944
     40        1          -0.002070528    0.003532698    0.000315817
     41        1          -0.001809603    0.003557323    0.000107544
     42        1          -0.000247213    0.000064049   -0.000000063
     43        6           0.017785479   -0.016103656   -0.000058676
     44        1           0.004797767    0.013911556    0.000019118
     45        1          -0.008155525   -0.000495355   -0.009873575
     46        1          -0.008152164   -0.000533528    0.009856340
[...]
 0025,0.00000055,-0.08676254,0.01983819,-0.02181386,0.00167610,-0.01983
 903,0.02181467,0.00167639,0.,0.,0.00000501,0.,0.,-0.00000126,0.,0.,0.0
 0000064,-0.00000134,0.00000041,-0.00000048,0.00000134,-0.00000040,-0.0
 0000047,0.,0.,0.00000186,-0.00000069,0.00000018,-0.00000071,0.00000069
 ,-0.00000018,-0.00000071,0.,0.,0.00000021,0.,0.,-0.00001910,0.,0.,0.00
 001162,0.00001074,0.00000054,-0.00000326,-0.00001074,-0.00000054,-0.00
 000326,0.00000166,-0.00000042,0.57662866,-0.00000466,0.00000634,-0.000
 00044,0.00001184,-0.00001738,0.00000043,-0.00000254,-0.00000128,-0.000
 00037,0.00001288,0.00000012,-0.00000110,-0.00000487,-0.00000071,0.0000
 0037,-0.00000390,0.00002925,-0.00000150,0.00000097,0.00000157,0.000000
 55,0.00000583,-0.00000789,-0.00000172,0.00000441,0.00000816,0.00000170
 ,-0.00001594,-0.00001685,-0.00000013,0.00000537,-0.00001356,-0.0000012
 8,0.00000129,0.00001456,0.00000086,0.00001240,0.00002113,-0.00000094,-
 0.00001720,-0.00000905,-0.00000482,-0.00000706,-0.00001699,0.00000143,
 0.00000255,0.00000155,-0.00000130,0.00000179,0.00000174,0.00000069,-0.
 00002604,-0.00001562,-0.00000283,-0.00000145,-0.00000048,-0.00001454,-
 0.00000424,0.00000005,0.00001619,0.00000061,0.00000042,0.00000059,0.00
 000137,0.00003631,-0.00000229,0.00000710,-0.00000438,0.00000185,0.0000
 0235,0.00001269,-0.00000087,0.00000003,0.00000311,-0.00001927,-0.00001
 678,-0.00005612,0.00001062,0.00000301,0.00004906,-0.00000785,0.0000004
 0,0.00000333,0.00000597,0.00003102,0.00005089,0.00004997,0.00013259,-0
 .00019041,-0.00034498,-0.00020176,-0.00006554,-0.00004597,0.00006455,-
 0.00005970,-0.00002391,0.00004301,0.00006369,0.00003268,0.00159102,-0.
 00133471,-0.00124229,0.00013228,0.00004617,0.00008239,-0.00001078,-0.0
 0002734,0.00000510,0.00000523,0.00000348,-0.00000192,0.00000244,0.0000
 0282,-0.00000045,-0.01740191,-0.00204978,0.02318070,-0.00207987,0.0038
 8591,-0.00082612,0.00062298,-0.00088412,-0.00025208,-0.00000046,0.0000
 0175,0.00000631,0.00000108,0.00000286,0.00000148,0.00000121,0.00000288
 ,0.00000020,-0.00000203,-0.00000168,0.00000067,-0.00000019,-0.00000234
 ,-0.00000213,0.00000036,0.00000115,0.00000069,-0.00000085,-0.00000115,
 0.00000073,-0.00000035,-0.00000109,-0.00000127,0.00000077,0.00000180,0
 .00000016,0.00000237,0.00000318,0.00000173,-0.00000369,0.00000185,0.00
 000073,0.00000447,0.00000013,-0.00000224,0.00000367,-0.00000089,0.0000
 0137,-0.13421163,-0.01124734,0.11920476,0.14807880,-0.00000310,0.00001
 925,0.00000041,0.00001391,-0.00003642,-0.00000003,-0.00000259,-0.00001
 421,-0.00000019,0.00003803,0.00000888,-0.00000052,-0.00000501,0.000002
 85,0.00000036,-0.00000724,0.00005152,0.00000024,0.00000199,0.00000187,
 0.00000017,0.00000878,-0.00004423,-0.00000135,-0.00002158,0.00011902,0
 .00000173,0.00000078,-0.00002969,0.00000806,-0.00002992,0.00001381,-0.
 00000223,-0.00000123,-0.00000623,-0.00000066,0.00001138,-0.00012195,-0
 .00000343,-0.00002101,0.00001712,-0.00001127,-0.00001308,-0.00002956,0
 .00000006,0.00000408,0.00000304,-0.00000245,0.00000405,0.00000294,0.00
 000238,0.00003188,0.00007560,0.00000803,-0.00000506,-0.00000106,0.0000
 0248,-0.00000743,0.00000383,-0.00000632,0.00000077,0.00000052,0.000000
 22,0.00005564,-0.00011147,0.00003869,0.00012068,-0.00000177,0.00001637
 ,-0.00001074,0.00009248,-0.00001167,-0.00013263,-0.00005650,0.00006727
 ,-0.00010476,-0.00011188,-0.00010773,-0.00004074,0.00013189,-0.0000053
 7,-0.00000603,0.00002018,-0.00001198,0.00001152,0.00010898,-0.00002023
 ,0.00016437,-0.00039085,0.00007466,0.00014024,0.00005340,0.00007629,-0
 .00011024,0.00009091,0.00002570,-0.00007708,-0.00000158,-0.00000840,-0
 .00059505,0.00291953,0.00047225,-0.00013269,-0.00003725,-0.00007828,-0
 .00003211,-0.00006397,-0.00000259,0.00000604,0.00000255,-0.00000020,0.
 00000705,0.00000348,0.00000147,0.01838034,-0.00051459,-0.02311600,0.00
 334074,-0.00333747,0.00033339,-0.00114299,0.00076093,0.00016836,-0.000
 00844,0.00001027,-0.00000433,0.00000391,0.00000711,-0.00000040,0.00000
 046,0.00000640,0.00000012,-0.00000133,-0.00000316,-0.00000003,-0.00000
 201,-0.00000243,0.00000056,0.00000014,0.00000145,-0.00000018,-0.000001
 15,-0.00000205,0.00000237,-0.00000109,-0.00000203,-0.00000232,0.000001
 59,0.00000325,0.00000005,0.00000442,0.00000376,-0.00000087,0.00000107,
 -0.00001458,0.00000333,0.00000263,0.00000273,0.00000234,-0.00000061,0.
 00000023,-0.00000398,-0.01459664,-0.05072413,0.01957026,0.01048688,0.0
 5311440,-0.00000823,0.00000420,0.00000052,0.00002017,-0.00002379,-0.00
 000063,-0.00000493,0.00000432,0.00000043,0.00001144,-0.00000581,0.0000
 0153,-0.00000795,-0.00000115,-0.00000068,-0.00000276,0.00004758,0.0000
 0183,0.00000139,0.00000303,-0.00000067,0.00000205,0.00001710,0.0000005
 3,0.00000650,-0.00003178,-0.00000074,-0.00003103,-0.00001844,0.0000141
 3,0.00004424,-0.00003039,0.00000060,0.00001206,0.00002184,-0.00000143,
 0.00002104,0.00009066,0.00000927,-0.00002893,-0.00000891,-0.00002377,-
 0.00001106,-0.00002978,-0.00000165,0.00000309,0.00000291,-0.00000112,0
 .00000389,0.00000277,0.00000180,-0.00006448,-0.00006121,-0.00002978,-0
 .00000263,0.00000093,-0.00002481,-0.00000029,-0.00000002,0.00003902,0.
 00000119,0.00000082,-0.00000075,0.00018955,-0.00002369,0.00003262,0.00
 001068,0.00000839,0.00000943,0.00002786,0.00012024,-0.00000436,-0.0002
 0363,-0.00002893,0.00006676,0.00002167,-0.00010937,-0.00007873,-0.0000
 1421,0.00006601,0.00000014,-0.00000535,0.00001918,-0.00001368,0.000041
 15,-0.00007030,0.00000514,-0.00041175,0.00001484,0.00002208,0.00001933
 ,0.00010676,-0.00001044,-0.00010110,0.00004625,-0.00000064,-0.00000527
 ,-0.00005972,-0.00000644,-0.00028371,-0.00071499,0.00037557,-0.0000454
 4,0.00000913,-0.00000371,-0.00001321,-0.00001923,-0.00000524,0.0000004
 2,-0.00000092,0.00000523,0.00000226,-0.00000061,-0.00000307,-0.0012267
 6,0.00122416,0.00070179,-0.00025283,0.00077593,0.00147565,0.00005200,-
 0.00075737,0.00113386,-0.00000196,0.00000077,-0.00000333,0.00000420,0.
 00000486,-0.00000052,-0.00000136,0.00000287,-0.00000018,-0.00000080,-0
 .00000024,-0.00000167,-0.00000220,0.00000031,0.00000260,0.00000006,0.0
 0000231,-0.00000071,-0.00000073,-0.00000238,0.00000178,-0.00000127,-0.
 00000232,-0.00000123,0.00000179,0.00000330,-0.00000012,0.00000295,0.00
 000423,0.00000506,-0.00000744,0.00000941,-0.00000376,0.00000412,-0.000
 00170,-0.00000436,0.00001051,-0.00000086,0.00000652,0.12152156,0.01723
 261,-0.22405309,-0.13432783,-0.02035425,0.24155033,-0.00000466,0.00000
 634,0.00000044,0.00001184,-0.00001738,-0.00000043,-0.00000254,-0.00000
 128,0.00000037,0.00001288,0.00000012,0.00000109,-0.00000487,-0.0000007
 1,-0.00000037,-0.00000390,0.00002925,0.00000150,0.00000097,0.00000157,
 -0.00000055,0.00000583,-0.00000789,0.00000172,0.00000441,0.00000816,-0
 .00000170,-0.00001594,-0.00001685,0.00000014,0.00000537,-0.00001356,0.
 00000128,0.00000129,0.00001456,-0.00000086,0.00001240,0.00002113,0.000
 00094,-0.00001720,-0.00000905,0.00000482,-0.00000706,-0.00001699,-0.00
 000143,0.00000179,0.00000174,-0.00000069,0.00000255,0.00000155,0.00000
 130,-0.00002604,-0.00001562,0.00000283,-0.00000424,0.00000005,-0.00001
 619,-0.00000145,-0.00000048,0.00001454,0.00000061,0.00000042,-0.000000
 59,0.00000137,0.00003632,0.00000230,0.00000709,-0.00000438,-0.00000185
 ,0.00000235,0.00001269,0.00000086,0.00000003,0.00000311,0.00001930,-0.
 00001679,-0.00005613,-0.00001067,0.00000301,0.00004906,0.00000786,0.00
 000040,0.00000333,-0.00000597,0.00003100,0.00005089,-0.00004998,0.0001
 3261,-0.00019043,0.00034499,-0.00020173,-0.00006555,0.00004602,0.00006
 454,-0.00005968,0.00002390,0.00004301,0.00006367,-0.00003269,0.0015909
 9,-0.00133479,0.00124230,0.00013225,0.00004616,-0.00008241,-0.00001078
 ,-0.00002734,-0.00000509,0.00000244,0.00000282,0.00000045,0.00000523,0
 .00000348,0.00000192,-0.01740079,-0.00204843,-0.02318156,0.00062296,-0
 .00088415,0.00025203,-0.00207993,0.00388588,0.00082618,-0.00000046,0.0
 0000175,-0.00000631,0.00000108,0.00000286,-0.00000148,0.00000121,0.000
 00288,-0.00000020,-0.00000019,-0.00000234,0.00000213,-0.00000203,-0.00
 000167,-0.00000067,0.00000036,0.00000115,-0.00000069,-0.00000035,-0.00
 000109,0.00000127,-0.00000085,-0.00000115,-0.00000073,0.00000077,0.000
 00180,-0.00000016,0.00000237,0.00000318,-0.00000173,-0.00000369,0.0000
 0185,-0.00000073,0.00000367,-0.00000089,-0.00000137,0.00000447,0.00000
 013,0.00000224,-0.13420208,-0.01123933,-0.11920241,0.01169153,0.001804
 42,0.01682711,0.14806783,-0.00000310,0.00001925,-0.00000041,0.00001391
 ,-0.00003643,0.00000004,-0.00000259,-0.00001421,0.00000019,0.00003803,
 0.00000888,0.00000051,-0.00000501,0.00000285,-0.00000036,-0.00000724,0
 .00005153,-0.00000024,0.00000199,0.00000187,-0.00000017,0.00000878,-0.
 00004422,0.00000134,-0.00002158,0.00011902,-0.00000173,0.00000078,-0.0
 0002969,-0.00000807,-0.00002992,0.00001381,0.00000225,-0.00000123,-0.0
 0000624,0.00000065,0.00001138,-0.00012195,0.00000343,-0.00002101,0.000
 01712,0.00001127,-0.00001308,-0.00002956,-0.00000006,0.00000405,0.0000
 0294,-0.00000238,0.00000408,0.00000304,0.00000245,0.00003187,0.0000756
 0,-0.00000803,-0.00000743,0.00000383,0.00000631,-0.00000506,-0.0000010
 6,-0.00000248,0.00000077,0.00000052,-0.00000022,0.00005567,-0.00011147
 ,-0.00003868,0.00012068,-0.00000176,-0.00001637,-0.00001072,0.00009250
 ,0.00001166,-0.00013267,-0.00005649,-0.00006727,-0.00010480,-0.0001120
 0,0.00010770,-0.00004073,0.00013189,0.00000537,-0.00000603,0.00002018,
 0.00001198,0.00001153,0.00010898,0.00002028,0.00016432,-0.00039083,-0.
 00007471,0.00014020,0.00005343,-0.00007635,-0.00011024,0.00009089,-0.0
 0002567,-0.00007707,-0.00000158,0.00000840,-0.00059503,0.00291958,-0.0
 0047212,-0.00013266,-0.00003724,0.00007831,-0.00003211,-0.00006397,0.0
 0000260,0.00000705,0.00000348,-0.00000147,0.00000604,0.00000255,0.0000
 0020,0.01837918,-0.00051596,0.02311672,-0.00114297,0.00076088,-0.00016
 846,0.00334078,-0.00333740,-0.00033351,-0.00000844,0.00001027,0.000004
 33,0.00000391,0.00000711,0.00000039,0.00000046,0.00000640,-0.00000012,
 -0.00000201,-0.00000243,-0.00000056,-0.00000133,-0.00000316,0.00000003
 ,0.00000014,0.00000145,0.00000018,-0.00000109,-0.00000203,0.00000232,-
 0.00000115,-0.00000205,-0.00000237,0.00000159,0.00000325,-0.00000005,0
 .00000442,0.00000376,0.00000087,0.00000107,-0.00001458,-0.00000333,-0.
 00000061,0.00000023,0.00000398,0.00000263,0.00000273,-0.00000234,-0.01
 458840,-0.05072180,-0.01956033,0.00180530,-0.00008204,0.00307470,0.010
 47791,0.05311177,0.00000823,-0.00000420,0.00000052,-0.00002017,0.00002
 379,-0.00000063,0.00000493,-0.00000432,0.00000043,-0.00001144,0.000005
 81,0.00000154,0.00000795,0.00000115,-0.00000068,0.00000276,-0.00004758
 ,0.00000183,-0.00000139,-0.00000303,-0.00000067,-0.00000205,-0.0000171
 1,0.00000053,-0.00000650,0.00003179,-0.00000074,0.00003103,0.00001844,
 0.00001413,-0.00004424,0.00003039,0.00000060,-0.00001207,-0.00002184,-
 0.00000143,-0.00002104,-0.00009066,0.00000926,0.00002893,0.00000892,-0
 .00002376,0.00001106,0.00002978,-0.00000165,-0.00000389,-0.00000277,0.
 00000180,-0.00000309,-0.00000291,-0.00000112,0.00006448,0.00006121,-0.
 00002978,0.00000029,0.00000002,0.00003902,0.00000263,-0.00000093,-0.00
 002481,-0.00000119,-0.00000082,-0.00000075,-0.00018956,0.00002367,0.00
 003256,-0.00001066,-0.00000839,0.00000944,-0.00002788,-0.00012024,-0.0
 0000435,0.00020364,0.00002890,0.00006671,-0.00002167,0.00010944,-0.000
 07863,0.00001421,-0.00006600,0.00000016,0.00000535,-0.00001918,-0.0000
 1367,-0.00004114,0.00007031,0.00000514,0.00041178,-0.00001489,0.000022
 12,-0.00001934,-0.00010675,-0.00001043,0.00010110,-0.00004625,-0.00000
 067,0.00000527,0.00005972,-0.00000644,0.00028371,0.00071512,0.00037570
 ,0.00004544,-0.00000913,-0.00000372,0.00001321,0.00001923,-0.00000525,
 -0.00000226,0.00000061,-0.00000308,-0.00000042,0.00000092,0.00000523,0
 .00122711,-0.00122433,0.00070219,-0.00005212,0.00075732,0.00113387,0.0
 0025286,-0.00077604,0.00147563,0.00000196,-0.00000077,-0.00000333,-0.0
 0000420,-0.00000486,-0.00000052,0.00000136,-0.00000287,-0.00000018,0.0
 0000220,-0.00000031,0.00000260,0.00000080,0.00000024,-0.00000167,-0.00
 000006,-0.00000231,-0.00000071,0.00000127,0.00000232,-0.00000123,0.000
 00073,0.00000237,0.00000178,-0.00000179,-0.00000330,-0.00000012,-0.000
 00295,-0.00000423,0.00000506,0.00000744,-0.00000941,-0.00000376,-0.000
 01051,0.00000086,0.00000652,-0.00000412,0.00000170,-0.00000436,-0.1215
 1933,-0.01722257,-0.22406591,-0.01682562,-0.00307333,-0.02173880,0.134
 32528,0.02034320,0.24156455,0.00000424,-0.00001060,0.,-0.00000907,0.00
 002013,0.,0.00000165,0.00000612,0.,-0.00002108,-0.00000255,0.,0.000004
 09,-0.00000127,0.,0.00000056,-0.00003269,0.,-0.00000113,-0.00000170,0.
 ,-0.00000018,0.00000635,0.,0.00002342,-0.00005490,0.,0.00001028,0.0000
 1927,0.,-0.00002670,0.00001357,0.,-0.00000865,-0.00000091,0.,-0.000016
 80,0.00004492,0.,0.00002808,-0.00000780,0.,0.00000869,0.00002063,0.,-0
 .00000283,-0.00000213,0.00000173,-0.00000283,-0.00000213,-0.00000173,0
 .00001139,-0.00002761,0.,0.00000489,-0.00000284,0.00000982,0.00000489,
 -0.00000284,-0.00000982,-0.00000097,-0.00000081,0.,-0.00021373,0.00006
 956,-0.00000003,-0.00002497,-0.00002023,0.,-0.00001526,-0.00011140,0.,
 0.00021688,0.00005502,-0.00000002,-0.00000332,0.00007874,0.00000003,0.
 00000491,-0.00006248,0.,0.00000668,-0.00002194,0.,-0.00032153,0.000244
 63,-0.00000002,0.00135472,0.00102235,0.00000006,0.00018915,-0.00006271
 ,-0.00000001,0.00001814,0.00006543,0.,-0.00007787,0.00014180,0.,-0.003
 38062,0.00535170,0.00000012,-0.00007443,-0.00005886,0.,0.00001380,0.00
 002255,0.,-0.00000155,0.00000040,-0.00000201,-0.00000155,0.00000040,0.
 00000201,0.01094874,0.02142996,0.00000093,0.00080510,-0.00093189,0.000
 36351,0.00080509,-0.00093186,-0.00036352,-0.00000517,0.00000720,0.,-0.
 00000221,-0.00000385,0.,0.00000063,-0.00000336,0.,0.00000096,0.0000005
 5,0.00000148,0.00000096,0.00000055,-0.00000148,0.00000024,-0.00000106,
 0.,0.00000077,0.00000159,-0.00000179,0.00000077,0.00000159,0.00000179,
 -0.00000139,-0.00000242,0.,-0.00000844,-0.00000959,0.,0.00000237,0.000
 00826,0.,-0.00000356,0.00000042,-0.00000012,-0.00000356,0.00000042,0.0
 0000012,-0.09889318,-0.10083398,-0.00000427,-0.00846537,-0.01753422,-0
 .00179513,-0.00846494,-0.01753322,0.00179369,0.10558081,0.00000735,-0.
 00002621,0.,-0.00003118,0.00006203,0.,0.00000694,0.00001579,0.,-0.0000
 5407,-0.00000920,0.,0.00001151,-0.00000237,0.,0.00001624,-0.00009216,0
 .,-0.00000319,-0.00000388,0.,-0.00001845,0.00007137,0.,-0.00000837,-0.
 00011461,0.,0.00000761,0.00003531,0.,0.00005337,-0.00001025,0.,0.00001
 333,-0.00000944,0.,-0.00001727,0.00008726,0.,0.00001215,-0.00001085,0.
 ,0.00002277,0.00005161,0.,-0.00000667,-0.00000485,0.00000364,-0.000006
 67,-0.00000485,-0.00000364,-0.00001061,-0.00005186,0.,0.00000498,0.000
 00181,0.00000468,0.00000498,0.00000181,-0.00000468,-0.00000119,-0.0000
 0063,0.,0.00006923,0.00007418,0.,-0.00016480,0.00006751,0.,0.00004164,
 -0.00002139,0.,-0.00001083,0.00001965,-0.00000001,0.00011027,0.0000495
 0,0.00000002,0.00005783,-0.00020552,0.,-0.00000501,-0.00001516,0.,0.00
 026119,-0.00026008,0.,-0.00126665,0.00054430,-0.00000003,-0.00010688,-
 0.00024484,0.00000004,0.00005229,-0.00007486,-0.00000002,0.00011554,-0
 .00019469,0.,0.00493050,-0.00452457,-0.00000008,0.00001109,0.00007351,
 -0.00000001,0.00004841,0.00011286,0.,-0.00001306,-0.00000952,0.0000045
 1,-0.00001306,-0.00000952,-0.00000451,-0.01524983,-0.01970645,-0.00000
 089,0.00025220,0.00068780,-0.00081160,0.00025216,0.00068774,0.00081164
 ,0.00001988,-0.00003061,0.,-0.00000412,-0.00001075,0.,-0.00000371,-0.0
 0001074,0.,0.00000274,0.00000708,-0.00000265,0.00000274,0.00000708,0.0
 0000264,-0.00000070,-0.00000293,0.,0.00000181,0.00000325,-0.00000330,0
 .00000181,0.00000325,0.00000330,-0.00000242,-0.00000557,0.,-0.00000162
 ,0.00000047,0.,0.00000256,0.00000804,0.,-0.00000319,-0.00000250,-0.000
 00055,-0.00000319,-0.00000250,0.00000055,-0.09798122,-0.25520146,-0.00
 000849,-0.00052378,-0.00191304,-0.00056425,-0.00052309,-0.00191146,0.0
 0056409,0.10963972,0.28202611,0.,0.,-0.00000065,0.,0.,0.00000018,0.,0.
 ,-0.00000031,0.,0.,-0.00000093,0.,0.,0.00000035,0.,0.,-0.00000061,0.,0
 .,0.00000042,0.,0.,-0.00000012,0.,0.,0.00000117,0.,0.,0.00000464,0.,0.
 ,0.00000106,0.,0.,-0.00000067,0.,0.,-0.00000190,0.,0.,-0.00001105,0.,0
 .,0.00000089,0.00000019,-0.00000004,-0.00000019,-0.00000019,0.00000004
 ,-0.00000019,0.,0.,0.00000090,0.00000150,-0.00000189,0.00000002,-0.000
 00150,0.00000189,0.00000002,0.,0.,0.00000055,0.,0.,0.00004358,0.,0.,0.
 00000292,0.,0.,-0.00000138,0.00000001,0.,0.00004437,0.,0.00000004,-0.0
 0004411,0.,-0.00000001,-0.00000172,0.,0.,-0.00000951,0.,-0.00000001,0.
 00004717,-0.00000001,0.00000003,0.00047144,-0.00000002,0.,-0.00004172,
 0.,-0.00000001,-0.00001122,0.00000001,0.,-0.00004768,0.00000009,-0.000
 00005,0.00063222,0.,0.,0.00003460,0.,0.,-0.00000077,0.00000034,0.00000
 012,-0.00000010,-0.00000034,-0.00000013,-0.00000011,-0.00000019,-0.000
 00014,-0.00164550,-0.00008223,0.00020366,-0.00010375,0.00008230,-0.000
 20366,-0.00010373,0.,0.,0.00000159,0.,0.,0.00000067,0.,0.,0.00000022,-
 0.00000020,-0.00000013,-0.00000019,0.00000020,0.00000013,-0.00000019,0
 .,0.,0.00000021,-0.00000016,-0.00000005,-0.00000012,0.00000016,0.00000
 005,-0.00000012,0.,0.,0.00000014,0.,0.,0.00000103,0.,0.,0.00000264,0.0
 0000114,0.00000130,-0.00000082,-0.00000114,-0.00000130,-0.00000082,-0.
 00000418,-0.00000853,-0.04787010,0.01134717,0.02595292,0.00055587,-0.0
 1134758,-0.02595379,0.00055393,0.00000464,0.00000957,0.04749750\\0.000
 00210,0.00000737,-0.00000465,-0.00001580,0.00001561,0.00000102,0.00000
 555,-0.00000668,0.00000630,-0.00000348,0.00000320,-0.00001029,0.000006
 63,-0.00000989,0.00001074,-0.00000178,0.00000099,0.00000035,-0.0000009
 8,-0.00000144,0.00000078,0.00000089,0.00000133,-0.00000013,0.00001052,
 -0.00001760,-0.00000042,-0.00000422,0.00000484,-0.00000126,-0.00000109
 ,-0.00000850,0.00000132,0.00000730,0.00000652,-0.00000363,-0.00000820,
 -0.00000404,-0.00000068,0.00000014,0.00000163,0.00000011,-0.00002407,-
 0.00000520,0.00000051,0.00000262,0.00000602,-0.00000260,0.00000283,0.0
 0000622,0.00000258,0.00002305,0.00000346,-0.00000023,-0.00000257,-0.00
 000651,0.00000249,-0.00000257,-0.00000675,-0.00000250,-0.00000038,-0.0
 0000311,-0.00000157,-0.00000342,-0.00000613,-0.00000034,-0.00000813,0.
 00001956,0.00000015,0.00000321,-0.00000563,0.00000304,0.00000211,0.000
 00950,-0.00000508,-0.00001382,-0.00000510,0.00000737,0.00001291,0.0000
 0485,0.00000206,0.00000037,-0.00000164,0.00000023,-0.00000274,-0.00001
 231,0.00000885,0.00001789,-0.00001276,-0.00000187,-0.00000498,0.000007
 65,-0.00001184,0.00000317,-0.00000219,0.00001929,-0.00001394,0.0000102
 1,-0.00002038,0.00000662,-0.00000093,-0.00000036,0.00000111,0.00000143
 ,-0.00000139,-0.00002133,-0.00000256,-0.00000042,0.00000195,0.00000614
 ,-0.00000161,0.00000224,0.00000656,0.00000204,0.00002367,0.00000530,-0
 .00000005,-0.00000190,-0.00000585,0.00000126,-0.00000227,-0.00000693,-
 0.00000219,0.00000115,0.00000253,0.00000301,0.00000837,-0.00001294,0.0
 0000022,-0.00001415,-0.00002008,0.,0.00001289,0.00000689,0.00001787,0.
 00001289,0.00000721,-0.00001803,0.00000778,-0.00001413,0.00000024,0.00
 001277,0.00000612,0.00001801,0.00001284,0.00000631,-0.00001831,-0.0000
 1392,-0.00002123,-0.00000005,-0.00000833,0.00001253,0.00000012,0.00001
 412,0.00002026,0.,-0.00001291,-0.00000697,0.00001784,-0.00001291,-0.00
 000691,-0.00001793,-0.00000860,0.00001515,0.00000042,-0.00001259,-0.00
 000627,0.00001804,-0.00001260,-0.00000633,-0.00001843,0.00001399,0.000
 02120,-0.00000002\\\@


 ALL MY ATTEMPTS TO ADAPT THE THEORETICAL FOUNDATIONS OF PHYSICS
 TO THESE NEW NOTIONS FAILED COMPLETELY. IT WAS AS IF THE GROUND HAD
 BEEN PULLED OUT FROM UNDER ONE WITH NO FIRM FOUNDATION TO BE SEEN ANYWHERE,
 UPON WHICH ONE COULD HAVE BUILT.  -- A.EINSTEIN
 Job cpu time:       0 days  5 hours  1 minutes 29.0 seconds.
 Elapsed time:       0 days  0 hours 37 minutes 43.0 seconds.
 File lengths (MBytes):  RWF=   2066 Int=      0 D2E=      0 Chk=     25 Scr=      1
 Normal termination of Gaussian 16 at Fri Jan 10 15:07:06 2020.
