 Entering Gaussian System, Link 0=g16
 Input=OT_opt_freq.gjf
 Output=OT_opt_freq.log
 Initial command:
 /apps/gaussian/g16-a03/l1.exe "/tmp/pbs.943020.pbs/Gau-5659.inp" -scrdir="/tmp/pbs.943020.pbs/"
 Entering Link 1 = /apps/gaussian/g16-a03/l1.exe PID=      5660.
  
 Copyright (c) 1988,1990,1992,1993,1995,1998,2003,2009,2016,
            Gaussian, Inc.  All Rights Reserved.
  
 This is part of the Gaussian(R) 16 program.  It is based on
 the Gaussian(R) 09 system (copyright 2009, Gaussian, Inc.),
 the Gaussian(R) 03 system (copyright 2003, Gaussian, Inc.),
 the Gaussian(R) 98 system (copyright 1998, Gaussian, Inc.),
 the Gaussian(R) 94 system (copyright 1995, Gaussian, Inc.),
 the Gaussian 92(TM) system (copyright 1992, Gaussian, Inc.),
 the Gaussian 90(TM) system (copyright 1990, Gaussian, Inc.),
 the Gaussian 88(TM) system (copyright 1988, Gaussian, Inc.),
 the Gaussian 86(TM) system (copyright 1986, Carnegie Mellon
 University), and the Gaussian 82(TM) system (copyright 1983,
 Carnegie Mellon University). Gaussian is a federally registered
 trademark of Gaussian, Inc.
  
 This software contains proprietary and confidential information,
 including trade secrets, belonging to Gaussian, Inc.
  
 This software is provided under written license and may be
 used, copied, transmitted, or stored only in accord with that
 written license.
  
 The following legend is applicable only to US Government
 contracts under FAR:
  
                    RESTRICTED RIGHTS LEGEND
  
 Use, reproduction and disclosure by the US Government is
 subject to restrictions as set forth in subparagraphs (a)
 and (c) of the Commercial Computer Software - Restricted
 Rights clause in FAR 52.227-19.
  
 Gaussian, Inc.
 340 Quinnipiac St., Bldg. 40, Wallingford CT 06492
  
  
 ---------------------------------------------------------------
 Warning -- This program may not be used in any manner that
 competes with the business of Gaussian, Inc. or will provide
 assistance to any competitor of Gaussian, Inc.  The licensee
 of this program is prohibited from giving any competitor of
 Gaussian, Inc. access to this program.  By using this program,
 the user acknowledges that Gaussian, Inc. is engaged in the
 business of creating and licensing software in the field of
 computational chemistry and represents and warrants to the
 licensee that it is not a competitor of Gaussian, Inc. and that
 it will not use this program in any manner prohibited above.
 ---------------------------------------------------------------
  

 Cite this work as:
 Gaussian 16, Revision A.03,
 M. J. Frisch, G. W. Trucks, H. B. Schlegel, G. E. Scuseria, 
 M. A. Robb, J. R. Cheeseman, G. Scalmani, V. Barone, 
 G. A. Petersson, H. Nakatsuji, X. Li, M. Caricato, A. V. Marenich, 
 J. Bloino, B. G. Janesko, R. Gomperts, B. Mennucci, H. P. Hratchian, 
 J. V. Ortiz, A. F. Izmaylov, J. L. Sonnenberg, D. Williams-Young, 
 F. Ding, F. Lipparini, F. Egidi, J. Goings, B. Peng, A. Petrone, 
 T. Henderson, D. Ranasinghe, V. G. Zakrzewski, J. Gao, N. Rega, 
 G. Zheng, W. Liang, M. Hada, M. Ehara, K. Toyota, R. Fukuda, 
 J. Hasegawa, M. Ishida, T. Nakajima, Y. Honda, O. Kitao, H. Nakai, 
 T. Vreven, K. Throssell, J. A. Montgomery, Jr., J. E. Peralta, 
 F. Ogliaro, M. J. Bearpark, J. J. Heyd, E. N. Brothers, K. N. Kudin, 
 V. N. Staroverov, T. A. Keith, R. Kobayashi, J. Normand, 
 K. Raghavachari, A. P. Rendell, J. C. Burant, S. S. Iyengar, 
 J. Tomasi, M. Cossi, J. M. Millam, M. Klene, C. Adamo, R. Cammi, 
 J. W. Ochterski, R. L. Martin, K. Morokuma, O. Farkas, 
 J. B. Foresman, and D. J. Fox, Gaussian, Inc., Wallingford CT, 2016.
 
 ******************************************
 Gaussian 16:  ES64L-G16RevA.03 25-Dec-2016
                 9-Jan-2020 
 ******************************************
 %mem=1GB
 %nprocshared=4
 Will use up to    4 processors via shared memory.
 ------------------------------
 #p opt freq=Raman b3lyp/6-311g
 ------------------------------
 1/18=20,19=15,26=3,38=1/1,3;
 2/9=110,12=2,17=6,18=5,40=1/2;
 3/5=4,6=6,11=2,25=1,30=1,71=1,74=-5/1,2,3;
 4//1;
 5/5=2,38=5/2;
 6/7=2,8=2,9=2,10=2,28=1/1;
 7//1,2,3,16;
 1/18=20,19=15,26=3/3(2);
 2/9=110/2;
 99//99;
 2/9=110/2;
 3/5=4,6=6,11=2,25=1,30=1,71=1,74=-5/1,2,3;
 4/5=5,16=3,69=1/1;
 5/5=2,38=5/2;
 7//1,2,3,16;
 1/18=20,19=15,26=3/3(-5);
 2/9=110/2;
 6/7=2,8=2,9=2,10=2,19=2,28=1/1;
 99/9=1/99;
 Leave Link    1 at Thu Jan  9 10:03:00 2020, MaxMem=   134217728 cpu:               0.1 elap:               0.0
 (Enter /apps/gaussian/g16-a03/l101.exe)
 ---------------
 OT_opt_freq.com
 ---------------
 Symbolic Z-matrix:
 Charge =  0 Multiplicity = 1
 C                     0.63951   1.97071  -0.97736 
 C                    -0.00762   0.95775  -0.24201 
 C                    -0.525     1.4126    1.00083 
 C                    -0.28181   2.78059   1.23543 
 S                     0.78361   3.44035  -0.00885 
 O                    -0.14361  -0.38793  -0.70628 
 H                    -1.05591   0.78287   1.68382 
 C                     0.9698   -0.71927  -1.54021 
 H                     1.87605  -0.62541  -0.97914 
 H                     0.99842  -0.05414  -2.37788 
 H                     0.86805  -1.72618  -1.8876 
 H                     0.99026   1.86553  -1.98275 
 H                    -0.68904   3.3417    2.05043 
 
 ITRead=  0  0  0  0  0  0  0  0  0  0  0  0  0
 MicOpt= -1 -1 -1 -1 -1 -1 -1 -1 -1 -1 -1 -1 -1
 NAtoms=     13 NQM=       13 NQMF=       0 NMMI=      0 NMMIF=      0
                NMic=       0 NMicF=      0.
                    Isotopes and Nuclear Properties:
 (Nuclear quadrupole moments (NQMom) in fm**2, nuclear magnetic moments (NMagM)
  in nuclear magnetons)

  Atom         1           2           3           4           5           6           7           8           9          10
 IAtWgt=          12          12          12          12          32          16           1          12           1           1
 AtmWgt=  12.0000000  12.0000000  12.0000000  12.0000000  31.9720718  15.9949146   1.0078250  12.0000000   1.0078250   1.0078250
 NucSpn=           0           0           0           0           0           0           1           0           1           1
 AtZEff=  -0.0000000  -0.0000000  -0.0000000  -0.0000000  -0.0000000  -0.0000000  -0.0000000  -0.0000000  -0.0000000  -0.0000000
 NQMom=    0.0000000   0.0000000   0.0000000   0.0000000   0.0000000   0.0000000   0.0000000   0.0000000   0.0000000   0.0000000
 NMagM=    0.0000000   0.0000000   0.0000000   0.0000000   0.0000000   0.0000000   2.7928460   0.0000000   2.7928460   2.7928460
 AtZNuc=   6.0000000   6.0000000   6.0000000   6.0000000  16.0000000   8.0000000   1.0000000   6.0000000   1.0000000   1.0000000

  Atom        11          12          13
 IAtWgt=           1           1           1
 AtmWgt=   1.0078250   1.0078250   1.0078250
 NucSpn=           1           1           1
 AtZEff=  -0.0000000  -0.0000000  -0.0000000
 NQMom=    0.0000000   0.0000000   0.0000000
 NMagM=    2.7928460   2.7928460   2.7928460
 AtZNuc=   1.0000000   1.0000000   1.0000000
 Leave Link  101 at Thu Jan  9 10:03:00 2020, MaxMem=   134217728 cpu:               0.6 elap:               0.2
 (Enter /apps/gaussian/g16-a03/l103.exe)

 GradGradGradGradGradGradGradGradGradGradGradGradGradGradGradGradGradGrad
 Berny optimization.
 Initialization pass.
                           ----------------------------
                           !    Initial Parameters    !
                           ! (Angstroms and Degrees)  !
 --------------------------                            --------------------------
 ! Name  Definition              Value          Derivative Info.                !
 --------------------------------------------------------------------------------
 ! R1    R(1,2)                  1.4091         estimate D2E/DX2                !
 ! R2    R(1,5)                  1.766          estimate D2E/DX2                !
 ! R3    R(1,12)                 1.07           estimate D2E/DX2                !
 ! R4    R(2,3)                  1.421          estimate D2E/DX2                !
 ! R5    R(2,6)                  1.43           estimate D2E/DX2                !
 ! R6    R(3,4)                  1.4091         estimate D2E/DX2                !
 ! R7    R(3,7)                  1.07           estimate D2E/DX2                !
 ! R8    R(4,5)                  1.766          estimate D2E/DX2                !
 ! R9    R(4,13)                 1.07           estimate D2E/DX2                !
 ! R10   R(6,8)                  1.43           estimate D2E/DX2                !
 ! R11   R(8,9)                  1.07           estimate D2E/DX2                !
 ! R12   R(8,10)                 1.07           estimate D2E/DX2                !
 ! R13   R(8,11)                 1.07           estimate D2E/DX2                !
 ! A1    A(2,1,5)              110.4578         estimate D2E/DX2                !
 ! A2    A(2,1,12)             124.7654         estimate D2E/DX2                !
 ! A3    A(5,1,12)             124.7762         estimate D2E/DX2                !
 ! A4    A(1,2,3)              113.1746         estimate D2E/DX2                !
 ! A5    A(1,2,6)              123.4166         estimate D2E/DX2                !
 ! A6    A(3,2,6)              123.405          estimate D2E/DX2                !
 ! A7    A(2,3,4)              113.1742         estimate D2E/DX2                !
 ! A8    A(2,3,7)              123.405          estimate D2E/DX2                !
 ! A9    A(4,3,7)              123.4169         estimate D2E/DX2                !
 ! A10   A(3,4,5)              110.4576         estimate D2E/DX2                !
 ! A11   A(3,4,13)             124.7655         estimate D2E/DX2                !
 ! A12   A(5,4,13)             124.7763         estimate D2E/DX2                !
 ! A13   A(1,5,4)               91.506          estimate D2E/DX2                !
 ! A14   A(2,6,8)              109.4712         estimate D2E/DX2                !
 ! A15   A(6,8,9)              109.4712         estimate D2E/DX2                !
 ! A16   A(6,8,10)             109.4712         estimate D2E/DX2                !
 ! A17   A(6,8,11)             109.4712         estimate D2E/DX2                !
 ! A18   A(9,8,10)             109.4712         estimate D2E/DX2                !
 ! A19   A(9,8,11)             109.4712         estimate D2E/DX2                !
 ! A20   A(10,8,11)            109.4712         estimate D2E/DX2                !
 ! D1    D(5,1,2,3)              7.5351         estimate D2E/DX2                !
 ! D2    D(5,1,2,6)           -173.1515         estimate D2E/DX2                !
 ! D3    D(12,1,2,3)          -172.2077         estimate D2E/DX2                !
 ! D4    D(12,1,2,6)             7.1057         estimate D2E/DX2                !
 ! D5    D(2,1,5,4)             -9.9538         estimate D2E/DX2                !
 ! D6    D(12,1,5,4)           169.789          estimate D2E/DX2                !
 ! D7    D(1,2,3,4)              0.0063         estimate D2E/DX2                !
 ! D8    D(1,2,3,7)            179.3004         estimate D2E/DX2                !
 ! D9    D(6,2,3,4)           -179.3072         estimate D2E/DX2                !
 ! D10   D(6,2,3,7)             -0.0131         estimate D2E/DX2                !
 ! D11   D(1,2,6,8)             30.3781         estimate D2E/DX2                !
 ! D12   D(3,2,6,8)           -150.3781         estimate D2E/DX2                !
 ! D13   D(2,3,4,5)             -7.5448         estimate D2E/DX2                !
 ! D14   D(2,3,4,13)           172.1982         estimate D2E/DX2                !
 ! D15   D(7,3,4,5)            173.1612         estimate D2E/DX2                !
 ! D16   D(7,3,4,13)            -7.0958         estimate D2E/DX2                !
 ! D17   D(3,4,5,1)              9.9572         estimate D2E/DX2                !
 ! D18   D(13,4,5,1)          -169.7857         estimate D2E/DX2                !
 ! D19   D(2,6,8,9)             60.0            estimate D2E/DX2                !
 ! D20   D(2,6,8,10)           -60.0            estimate D2E/DX2                !
 ! D21   D(2,6,8,11)           180.0            estimate D2E/DX2                !
 --------------------------------------------------------------------------------
 Trust Radius=3.00D-01 FncErr=1.00D-07 GrdErr=1.00D-06 EigMax=2.50D+02 EigMin=1.00D-04
 Number of steps in this run=     64 maximum allowed number of steps=    100.
 GradGradGradGradGradGradGradGradGradGradGradGradGradGradGradGradGradGrad

 Leave Link  103 at Thu Jan  9 10:03:00 2020, MaxMem=   134217728 cpu:               0.1 elap:               0.0
 (Enter /apps/gaussian/g16-a03/l202.exe)
                          Input orientation:                          
 ---------------------------------------------------------------------
 Center     Atomic      Atomic             Coordinates (Angstroms)
 Number     Number       Type             X           Y           Z
 ---------------------------------------------------------------------
      1          6           0        0.639511    1.970710   -0.977356
      2          6           0       -0.007619    0.957751   -0.242012
      3          6           0       -0.525005    1.412599    1.000829
      4          6           0       -0.281806    2.780594    1.235432
      5         16           0        0.783606    3.440355   -0.008849
      6          8           0       -0.143606   -0.387931   -0.706283
      7          1           0       -1.055911    0.782865    1.683818
      8          6           0        0.969804   -0.719267   -1.540211
      9          1           0        1.876053   -0.625408   -0.979137
     10          1           0        0.998418   -0.054141   -2.377879
     11          1           0        0.868052   -1.726176   -1.887603
     12          1           0        0.990262    1.865529   -1.982747
     13          1           0       -0.689044    3.341698    2.050429
 ---------------------------------------------------------------------
                    Distance matrix (angstroms):
                    1          2          3          4          5
     1  C    0.000000
     2  C    1.409112   0.000000
     3  C    2.362373   1.420996   0.000000
     4  C    2.530053   2.362367   1.409111   0.000000
     5  S    1.765963   2.616052   2.616048   1.765963   0.000000
     6  O    2.499988   1.430000   2.510300   3.718724   4.000239
     7  H    3.371540   2.199619   1.070000   2.188883   3.648452
     8  C    2.768010   2.335180   3.638158   4.638939   4.436462
     9  H    2.875564   2.568651   3.720056   4.600165   4.320338
    10  H    2.488032   2.568651   3.985952   4.767674   4.227286
    11  H    3.814151   3.267757   4.487266   5.602365   5.498171
    12  H    1.070000   2.202269   3.376819   3.579410   2.533585
    13  H    3.579406   3.376807   2.202269   1.070000   2.533586
                    6          7          8          9         10
     6  O    0.000000
     7  H    2.813477   0.000000
     8  C    1.430000   4.093200   0.000000
     9  H    2.051796   4.203686   1.070000   0.000000
    10  H    2.051796   4.627984   1.070000   1.747303   0.000000
    11  H    2.051796   4.769903   1.070000   1.747303   1.747303
    12  H    2.827207   4.336207   2.622486   2.827831   1.959931
    13  H    4.669807   2.610866   5.668854   5.612123   5.830023
                   11         12         13
    11  H    0.000000
    12  H    3.595043   0.000000
    13  H    6.604240   4.611470   0.000000
 Stoichiometry    C5H6OS
 Framework group  C1[X(C5H6OS)]
 Deg. of freedom    33
 Full point group                 C1      NOp   1
 Largest Abelian subgroup         C1      NOp   1
 Largest concise Abelian subgroup C1      NOp   1
                         Standard orientation:                         
 ---------------------------------------------------------------------
 Center     Atomic      Atomic             Coordinates (Angstroms)
 Number     Number       Type             X           Y           Z
 ---------------------------------------------------------------------
      1          6           0        0.036605   -0.886389   -0.270203
      2          6           0       -0.553490    0.387165   -0.145936
      3          6           0        0.395756    1.426963    0.046371
      4          6           0        1.726730    0.964964    0.072054
      5         16           0        1.767414   -0.800528    0.069729
      6          8           0       -1.963613    0.612502   -0.221288
      7          1           0        0.127688    2.457719    0.149233
      8          6           0       -2.657109   -0.539936    0.264354
      9          1           0       -2.378762   -0.721393    1.281456
     10          1           0       -2.399239   -1.389402   -0.332982
     11          1           0       -3.712236   -0.371327    0.207972
     12          1           0       -0.489341   -1.779095   -0.537329
     13          1           0        2.591214    1.595329    0.086444
 ---------------------------------------------------------------------
 Rotational constants (GHZ):           5.2761211           1.5530666           1.2296157
 Leave Link  202 at Thu Jan  9 10:03:00 2020, MaxMem=   134217728 cpu:               0.1 elap:               0.0
 (Enter /apps/gaussian/g16-a03/l301.exe)
 Standard basis: 6-311G (5D, 7F)
 Ernie: Thresh=  0.10000D-02 Tol=  0.10000D-05 Strict=F.
 There are   117 symmetry adapted cartesian basis functions of A   symmetry.
 There are   117 symmetry adapted basis functions of A   symmetry.
   117 basis functions,   226 primitive gaussians,   117 cartesian basis functions
    30 alpha electrons       30 beta electrons
       nuclear repulsion energy       344.7110630916 Hartrees.
 IExCor=  402 DFT=T Ex+Corr=B3LYP ExCW=0 ScaHFX=  0.200000
 ScaDFX=  0.800000  0.720000  1.000000  0.810000 ScalE2=  1.000000  1.000000
 IRadAn=      5 IRanWt=     -1 IRanGd=            0 ICorTp=0 IEmpDi=  4
 NAtoms=   13 NActive=   13 NUniq=   13 SFac= 1.00D+00 NAtFMM=   60 NAOKFM=F Big=F
 Integral buffers will be    131072 words long.
 Raffenetti 2 integral format.
 Two-electron integral symmetry is turned on.
 Leave Link  301 at Thu Jan  9 10:03:00 2020, MaxMem=   134217728 cpu:               0.3 elap:               0.1
 (Enter /apps/gaussian/g16-a03/l302.exe)
 NPDir=0 NMtPBC=     1 NCelOv=     1 NCel=       1 NClECP=     1 NCelD=      1
         NCelK=      1 NCelE2=     1 NClLst=     1 CellRange=     0.0.
 One-electron integrals computed using PRISM.
 One-electron integral symmetry used in STVInt
 NBasis=   117 RedAO= T EigKep=  1.23D-03  NBF=   117
 NBsUse=   117 1.00D-06 EigRej= -1.00D+00 NBFU=   117
 Precomputing XC quadrature grid using
 IXCGrd= 4 IRadAn=           5 IRanWt=          -1 IRanGd=           0 AccXCQ= 0.00D+00.
 Generated NRdTot=       0 NPtTot=           0 NUsed=           0 NTot=          32
 NSgBfM=   117   117   117   117   117 MxSgAt=    13 MxSgA2=    13.
 Leave Link  302 at Thu Jan  9 10:03:01 2020, MaxMem=   134217728 cpu:               0.9 elap:               0.2
 (Enter /apps/gaussian/g16-a03/l303.exe)
 DipDrv:  MaxL=1.
 Leave Link  303 at Thu Jan  9 10:03:01 2020, MaxMem=   134217728 cpu:               0.2 elap:               0.1
 (Enter /apps/gaussian/g16-a03/l401.exe)
 ExpMin= 7.71D-02 ExpMax= 9.34D+04 ExpMxC= 3.17D+03 IAcc=3 IRadAn=         5 AccDes= 0.00D+00
 Harris functional with IExCor=  402 and IRadAn=       5 diagonalized for initial guess.
 HarFok:  IExCor=  402 AccDes= 0.00D+00 IRadAn=         5 IDoV= 1 UseB2=F ITyADJ=14
 ICtDFT=  3500011 ScaDFX=  1.000000  1.000000  1.000000  1.000000
 FoFCou: FMM=F IPFlag=           0 FMFlag=      100000 FMFlg1=           0
         NFxFlg=           0 DoJE=T BraDBF=F KetDBF=T FulRan=T
         wScrn=  0.000000 ICntrl=       500 IOpCl=  0 I1Cent=   200000004 NGrid=           0
         NMat0=    1 NMatS0=      1 NMatT0=    0 NMatD0=    1 NMtDS0=    0 NMtDT0=    0
 Petite list used in FoFCou.
 Harris En= -667.478883585239    
 JPrj=0 DoOrth=F DoCkMO=F.
 Leave Link  401 at Thu Jan  9 10:03:02 2020, MaxMem=   134217728 cpu:               4.5 elap:               1.2
 (Enter /apps/gaussian/g16-a03/l502.exe)
 Keep R1 ints in memory in canonical form, NReq=27598639.
 FoFCou: FMM=F IPFlag=           0 FMFlag=           0 FMFlg1=           0
         NFxFlg=           0 DoJE=F BraDBF=F KetDBF=F FulRan=T
         wScrn=  0.000000 ICntrl=       600 IOpCl=  0 I1Cent=           0 NGrid=           0
         NMat0=    1 NMatS0=   6903 NMatT0=    0 NMatD0=    1 NMtDS0=    0 NMtDT0=    0
 Symmetry not used in FoFCou.
 Two-electron integral symmetry not used.
 Closed shell SCF:
 Using DIIS extrapolation, IDIIS=  1040.
 NGot=   134217728 LenX=   110359045 LenY=   110344915
 Requested convergence on RMS density matrix=1.00D-08 within 128 cycles.
 Requested convergence on MAX density matrix=1.00D-06.
 Requested convergence on             energy=1.00D-06.
 No special actions if energy rises.
 Integral accuracy reduced to 1.0D-05 until final iterations.

 Cycle   1  Pass 0  IDiag  1:
 E= -667.264932535821    
 DIIS: error= 4.17D-02 at cycle   1 NSaved=   1.
 NSaved= 1 IEnMin= 1 EnMin= -667.264932535821     IErMin= 1 ErrMin= 4.17D-02
 ErrMax= 4.17D-02  0.00D+00 EMaxC= 1.00D-01 BMatC= 2.40D-01 BMatP= 2.40D-01
 IDIUse=3 WtCom= 5.83D-01 WtEn= 4.17D-01
 Coeff-Com:  0.100D+01
 Coeff-En:   0.100D+01
 Coeff:      0.100D+01
 Gap=     0.226 Goal=   None    Shift=    0.000
 GapD=    0.226 DampG=1.000 DampE=0.500 DampFc=0.5000 IDamp=-1.
 Damping current iteration by 5.00D-01
 RMSDP=1.00D-02 MaxDP=1.61D-01              OVMax= 2.79D-01

 Cycle   2  Pass 0  IDiag  1:
 E= -667.342882856970     Delta-E=       -0.077950321149 Rises=F Damp=T
 DIIS: error= 9.08D-03 at cycle   2 NSaved=   2.
 NSaved= 2 IEnMin= 2 EnMin= -667.342882856970     IErMin= 2 ErrMin= 9.08D-03
 ErrMax= 9.08D-03  0.00D+00 EMaxC= 1.00D-01 BMatC= 2.09D-02 BMatP= 2.40D-01
 IDIUse=3 WtCom= 9.09D-01 WtEn= 9.08D-02
 Coeff-Com:  0.131D+00 0.869D+00
 Coeff-En:   0.282D+00 0.718D+00
 Coeff:      0.145D+00 0.855D+00
 Gap=     0.260 Goal=   None    Shift=    0.000
 RMSDP=3.35D-03 MaxDP=5.75D-02 DE=-7.80D-02 OVMax= 2.67D-01

 Cycle   3  Pass 0  IDiag  1:
 E= -667.470520539428     Delta-E=       -0.127637682458 Rises=F Damp=F
 DIIS: error= 1.29D-02 at cycle   3 NSaved=   3.
 NSaved= 3 IEnMin= 3 EnMin= -667.470520539428     IErMin= 2 ErrMin= 9.08D-03
 ErrMax= 1.29D-02  0.00D+00 EMaxC= 1.00D-01 BMatC= 1.14D-02 BMatP= 2.09D-02
 IDIUse=3 WtCom= 8.71D-01 WtEn= 1.29D-01
 Coeff-Com:  0.118D-01 0.409D+00 0.580D+00
 Coeff-En:   0.000D+00 0.000D+00 0.100D+01
 Coeff:      0.103D-01 0.356D+00 0.634D+00
 Gap=     0.192 Goal=   None    Shift=    0.000
 RMSDP=1.63D-03 MaxDP=2.61D-02 DE=-1.28D-01 OVMax= 7.78D-02

 Cycle   4  Pass 0  IDiag  1:
 E= -667.475975982772     Delta-E=       -0.005455443344 Rises=F Damp=F
 DIIS: error= 9.84D-03 at cycle   4 NSaved=   4.
 NSaved= 4 IEnMin= 4 EnMin= -667.475975982772     IErMin= 2 ErrMin= 9.08D-03
 ErrMax= 9.84D-03  0.00D+00 EMaxC= 1.00D-01 BMatC= 6.88D-03 BMatP= 1.14D-02
 IDIUse=3 WtCom= 9.02D-01 WtEn= 9.84D-02
 Coeff-Com: -0.130D-01 0.826D-01 0.442D+00 0.488D+00
 Coeff-En:   0.000D+00 0.000D+00 0.387D+00 0.613D+00
 Coeff:     -0.118D-01 0.744D-01 0.437D+00 0.500D+00
 Gap=     0.197 Goal=   None    Shift=    0.000
 RMSDP=7.13D-04 MaxDP=1.07D-02 DE=-5.46D-03 OVMax= 3.47D-02

 Cycle   5  Pass 0  IDiag  1:
 E= -667.482780838374     Delta-E=       -0.006804855602 Rises=F Damp=F
 DIIS: error= 9.43D-04 at cycle   5 NSaved=   5.
 NSaved= 5 IEnMin= 5 EnMin= -667.482780838374     IErMin= 5 ErrMin= 9.43D-04
 ErrMax= 9.43D-04  0.00D+00 EMaxC= 1.00D-01 BMatC= 1.40D-04 BMatP= 6.88D-03
 IDIUse=3 WtCom= 9.91D-01 WtEn= 9.43D-03
 Coeff-Com: -0.392D-02 0.142D-01 0.188D+00 0.247D+00 0.554D+00
 Coeff-En:   0.000D+00 0.000D+00 0.000D+00 0.000D+00 0.100D+01
 Coeff:     -0.388D-02 0.141D-01 0.186D+00 0.245D+00 0.558D+00
 Gap=     0.196 Goal=   None    Shift=    0.000
 RMSDP=1.21D-04 MaxDP=3.46D-03 DE=-6.80D-03 OVMax= 3.69D-03

 Cycle   6  Pass 0  IDiag  1:
 E= -667.482898776471     Delta-E=       -0.000117938097 Rises=F Damp=F
 DIIS: error= 3.26D-04 at cycle   6 NSaved=   6.
 NSaved= 6 IEnMin= 6 EnMin= -667.482898776471     IErMin= 6 ErrMin= 3.26D-04
 ErrMax= 3.26D-04  0.00D+00 EMaxC= 1.00D-01 BMatC= 1.13D-05 BMatP= 1.40D-04
 IDIUse=3 WtCom= 9.97D-01 WtEn= 3.26D-03
 Coeff-Com: -0.191D-03-0.120D-02 0.520D-01 0.742D-01 0.277D+00 0.599D+00
 Coeff-En:   0.000D+00 0.000D+00 0.000D+00 0.000D+00 0.000D+00 0.100D+01
 Coeff:     -0.190D-03-0.120D-02 0.518D-01 0.739D-01 0.276D+00 0.600D+00
 Gap=     0.196 Goal=   None    Shift=    0.000
 RMSDP=4.21D-05 MaxDP=6.34D-04 DE=-1.18D-04 OVMax= 2.28D-03

 Cycle   7  Pass 0  IDiag  1:
 E= -667.482906147226     Delta-E=       -0.000007370756 Rises=F Damp=F
 DIIS: error= 2.68D-04 at cycle   7 NSaved=   7.
 NSaved= 7 IEnMin= 7 EnMin= -667.482906147226     IErMin= 7 ErrMin= 2.68D-04
 ErrMax= 2.68D-04  0.00D+00 EMaxC= 1.00D-01 BMatC= 4.18D-06 BMatP= 1.13D-05
 IDIUse=3 WtCom= 9.97D-01 WtEn= 2.68D-03
 Coeff-Com:  0.426D-03-0.259D-02 0.130D-01 0.207D-01 0.120D+00 0.419D+00
 Coeff-Com:  0.429D+00
 Coeff-En:   0.000D+00 0.000D+00 0.000D+00 0.000D+00 0.000D+00 0.296D+00
 Coeff-En:   0.704D+00
 Coeff:      0.425D-03-0.258D-02 0.130D-01 0.207D-01 0.120D+00 0.419D+00
 Coeff:      0.430D+00
 Gap=     0.196 Goal=   None    Shift=    0.000
 RMSDP=1.99D-05 MaxDP=3.21D-04 DE=-7.37D-06 OVMax= 1.12D-03

 Cycle   8  Pass 0  IDiag  1:
 E= -667.482910738785     Delta-E=       -0.000004591558 Rises=F Damp=F
 DIIS: error= 3.58D-05 at cycle   8 NSaved=   8.
 NSaved= 8 IEnMin= 8 EnMin= -667.482910738785     IErMin= 8 ErrMin= 3.58D-05
 ErrMax= 3.58D-05  0.00D+00 EMaxC= 1.00D-01 BMatC= 1.29D-07 BMatP= 4.18D-06
 IDIUse=1 WtCom= 1.00D+00 WtEn= 0.00D+00
 Coeff-Com:  0.243D-03-0.112D-02 0.104D-02 0.237D-02 0.274D-01 0.138D+00
 Coeff-Com:  0.207D+00 0.625D+00
 Coeff:      0.243D-03-0.112D-02 0.104D-02 0.237D-02 0.274D-01 0.138D+00
 Coeff:      0.207D+00 0.625D+00
 Gap=     0.196 Goal=   None    Shift=    0.000
 RMSDP=3.93D-06 MaxDP=7.10D-05 DE=-4.59D-06 OVMax= 1.46D-04

 Initial convergence to 1.0D-05 achieved.  Increase integral accuracy.
 Cycle   9  Pass 1  IDiag  1:
 E= -667.482922485022     Delta-E=       -0.000011746238 Rises=F Damp=F
 DIIS: error= 9.60D-06 at cycle   1 NSaved=   1.
 NSaved= 1 IEnMin= 1 EnMin= -667.482922485022     IErMin= 1 ErrMin= 9.60D-06
 ErrMax= 9.60D-06  0.00D+00 EMaxC= 1.00D-01 BMatC= 1.59D-08 BMatP= 1.59D-08
 IDIUse=1 WtCom= 1.00D+00 WtEn= 0.00D+00
 Coeff-Com:  0.100D+01
 Coeff:      0.100D+01
 Gap=     0.196 Goal=   None    Shift=    0.000
 RMSDP=3.93D-06 MaxDP=7.10D-05 DE=-1.17D-05 OVMax= 1.08D-04

 Cycle  10  Pass 1  IDiag  1:
 E= -667.482922473365     Delta-E=        0.000000011657 Rises=F Damp=F
 DIIS: error= 1.63D-05 at cycle   2 NSaved=   2.
 NSaved= 2 IEnMin= 1 EnMin= -667.482922485022     IErMin= 1 ErrMin= 9.60D-06
 ErrMax= 1.63D-05  0.00D+00 EMaxC= 1.00D-01 BMatC= 3.20D-08 BMatP= 1.59D-08
 IDIUse=1 WtCom= 1.00D+00 WtEn= 0.00D+00
 Coeff-Com:  0.592D+00 0.408D+00
 Coeff:      0.592D+00 0.408D+00
 Gap=     0.196 Goal=   None    Shift=    0.000
 RMSDP=1.57D-06 MaxDP=2.96D-05 DE= 1.17D-08 OVMax= 7.30D-05

 Cycle  11  Pass 1  IDiag  1:
 E= -667.482922504094     Delta-E=       -0.000000030729 Rises=F Damp=F
 DIIS: error= 4.50D-06 at cycle   3 NSaved=   3.
 NSaved= 3 IEnMin= 3 EnMin= -667.482922504094     IErMin= 3 ErrMin= 4.50D-06
 ErrMax= 4.50D-06  0.00D+00 EMaxC= 1.00D-01 BMatC= 1.26D-09 BMatP= 1.59D-08
 IDIUse=1 WtCom= 1.00D+00 WtEn= 0.00D+00
 Coeff-Com:  0.247D+00 0.212D+00 0.541D+00
 Coeff:      0.247D+00 0.212D+00 0.541D+00
 Gap=     0.196 Goal=   None    Shift=    0.000
 RMSDP=4.86D-07 MaxDP=6.91D-06 DE=-3.07D-08 OVMax= 2.95D-05

 Cycle  12  Pass 1  IDiag  1:
 E= -667.482922505128     Delta-E=       -0.000000001034 Rises=F Damp=F
 DIIS: error= 2.24D-06 at cycle   4 NSaved=   4.
 NSaved= 4 IEnMin= 4 EnMin= -667.482922505128     IErMin= 4 ErrMin= 2.24D-06
 ErrMax= 2.24D-06  0.00D+00 EMaxC= 1.00D-01 BMatC= 3.44D-10 BMatP= 1.26D-09
 IDIUse=1 WtCom= 1.00D+00 WtEn= 0.00D+00
 Coeff-Com:  0.304D-01 0.435D-01 0.356D+00 0.570D+00
 Coeff:      0.304D-01 0.435D-01 0.356D+00 0.570D+00
 Gap=     0.196 Goal=   None    Shift=    0.000
 RMSDP=2.01D-07 MaxDP=2.88D-06 DE=-1.03D-09 OVMax= 9.90D-06

 Cycle  13  Pass 1  IDiag  1:
 E= -667.482922505485     Delta-E=       -0.000000000357 Rises=F Damp=F
 DIIS: error= 6.43D-07 at cycle   5 NSaved=   5.
 NSaved= 5 IEnMin= 5 EnMin= -667.482922505485     IErMin= 5 ErrMin= 6.43D-07
 ErrMax= 6.43D-07  0.00D+00 EMaxC= 1.00D-01 BMatC= 4.65D-11 BMatP= 3.44D-10
 IDIUse=1 WtCom= 1.00D+00 WtEn= 0.00D+00
 Coeff-Com: -0.137D-01-0.541D-03 0.163D+00 0.355D+00 0.496D+00
 Coeff:     -0.137D-01-0.541D-03 0.163D+00 0.355D+00 0.496D+00
 Gap=     0.196 Goal=   None    Shift=    0.000
 RMSDP=5.87D-08 MaxDP=1.20D-06 DE=-3.57D-10 OVMax= 2.02D-06

 Cycle  14  Pass 1  IDiag  1:
 E= -667.482922505524     Delta-E=       -0.000000000039 Rises=F Damp=F
 DIIS: error= 1.30D-07 at cycle   6 NSaved=   6.
 NSaved= 6 IEnMin= 6 EnMin= -667.482922505524     IErMin= 6 ErrMin= 1.30D-07
 ErrMax= 1.30D-07  0.00D+00 EMaxC= 1.00D-01 BMatC= 1.79D-12 BMatP= 4.65D-11
 IDIUse=1 WtCom= 1.00D+00 WtEn= 0.00D+00
 Coeff-Com: -0.886D-02-0.270D-02 0.709D-01 0.160D+00 0.264D+00 0.517D+00
 Coeff:     -0.886D-02-0.270D-02 0.709D-01 0.160D+00 0.264D+00 0.517D+00
 Gap=     0.196 Goal=   None    Shift=    0.000
 RMSDP=1.22D-08 MaxDP=2.09D-07 DE=-3.90D-11 OVMax= 3.45D-07

 Cycle  15  Pass 1  IDiag  1:
 E= -667.482922505524     Delta-E=        0.000000000000 Rises=F Damp=F
 DIIS: error= 2.68D-08 at cycle   7 NSaved=   7.
 NSaved= 7 IEnMin= 6 EnMin= -667.482922505524     IErMin= 7 ErrMin= 2.68D-08
 ErrMax= 2.68D-08  0.00D+00 EMaxC= 1.00D-01 BMatC= 1.15D-13 BMatP= 1.79D-12
 IDIUse=1 WtCom= 1.00D+00 WtEn= 0.00D+00
 Coeff-Com: -0.936D-03-0.955D-03 0.313D-02 0.367D-02 0.214D-01 0.203D+00
 Coeff-Com:  0.770D+00
 Coeff:     -0.936D-03-0.955D-03 0.313D-02 0.367D-02 0.214D-01 0.203D+00
 Coeff:      0.770D+00
 Gap=     0.196 Goal=   None    Shift=    0.000
 RMSDP=4.38D-09 MaxDP=6.35D-08 DE= 4.55D-13 OVMax= 2.21D-07

 SCF Done:  E(RB3LYP) =  -667.482922506     A.U. after   15 cycles
            NFock= 15  Conv=0.44D-08     -V/T= 2.0020
 KE= 6.661292404275D+02 PE=-2.263946543099D+03 EE= 5.856233170746D+02
 Leave Link  502 at Thu Jan  9 10:03:12 2020, MaxMem=   134217728 cpu:              39.3 elap:              10.2
 (Enter /apps/gaussian/g16-a03/l601.exe)
 Copying SCF densities to generalized density rwf, IOpCl= 0 IROHF=0.

 **********************************************************************

            Population analysis using the SCF density.

 **********************************************************************

 Orbital symmetries:
       Occupied  (A) (A) (A) (A) (A) (A) (A) (A) (A) (A) (A) (A)
                 (A) (A) (A) (A) (A) (A) (A) (A) (A) (A) (A) (A)
                 (A) (A) (A) (A) (A) (A)
       Virtual   (A) (A) (A) (A) (A) (A) (A) (A) (A) (A) (A) (A)
                 (A) (A) (A) (A) (A) (A) (A) (A) (A) (A) (A) (A)
                 (A) (A) (A) (A) (A) (A) (A) (A) (A) (A) (A) (A)
                 (A) (A) (A) (A) (A) (A) (A) (A) (A) (A) (A) (A)
                 (A) (A) (A) (A) (A) (A) (A) (A) (A) (A) (A) (A)
                 (A) (A) (A) (A) (A) (A) (A) (A) (A) (A) (A) (A)
                 (A) (A) (A) (A) (A) (A) (A) (A) (A) (A) (A) (A)
                 (A) (A) (A)
 The electronic state is 1-A.
 Alpha  occ. eigenvalues --  -88.89490 -19.15344 -10.24934 -10.21978 -10.21895
 Alpha  occ. eigenvalues --  -10.21000 -10.19182  -7.98296  -5.94604  -5.94184
 Alpha  occ. eigenvalues --   -5.93697  -1.06149  -0.89012  -0.75754  -0.73331
 Alpha  occ. eigenvalues --   -0.70133  -0.59155  -0.55576  -0.53656  -0.47598
 Alpha  occ. eigenvalues --   -0.46735  -0.44898  -0.42409  -0.40600  -0.38833
 Alpha  occ. eigenvalues --   -0.36378  -0.34356  -0.30926  -0.25319  -0.22969
 Alpha virt. eigenvalues --   -0.03381   0.01982   0.04387   0.05382   0.05977
 Alpha virt. eigenvalues --    0.07262   0.08418   0.10263   0.11416   0.11716
 Alpha virt. eigenvalues --    0.15063   0.18488   0.19421   0.20992   0.22173
 Alpha virt. eigenvalues --    0.27376   0.30656   0.31247   0.33233   0.35739
 Alpha virt. eigenvalues --    0.39995   0.41236   0.42632   0.43207   0.45266
 Alpha virt. eigenvalues --    0.47889   0.48606   0.50631   0.52468   0.53394
 Alpha virt. eigenvalues --    0.55786   0.57653   0.58743   0.61107   0.63887
 Alpha virt. eigenvalues --    0.64675   0.65988   0.69817   0.72118   0.75508
 Alpha virt. eigenvalues --    0.78542   0.81148   0.87702   0.89143   0.92526
 Alpha virt. eigenvalues --    0.98418   1.01024   1.21533   1.51387   1.60052
 Alpha virt. eigenvalues --    1.67527   1.68977   2.15996   2.20363   2.21785
 Alpha virt. eigenvalues --    2.24593   2.31619   2.35008   2.52360   2.56506
 Alpha virt. eigenvalues --    2.64728   2.68874   2.71914   2.78919   2.80078
 Alpha virt. eigenvalues --    2.83729   2.86094   2.88371   2.97736   3.04475
 Alpha virt. eigenvalues --    3.10999   3.15091   3.21152   4.83891   4.88041
 Alpha virt. eigenvalues --    5.11611   7.60403  17.16376  17.27626  17.34484
 Alpha virt. eigenvalues --   23.15740  23.32618  23.36947  23.49455  23.66190
 Alpha virt. eigenvalues --   49.87184 188.73743
          Condensed to atoms (all electrons):
               1          2          3          4          5          6
     1  C    5.948723   0.231469  -0.072211  -0.147612   0.220002  -0.083637
     2  C    0.231469   4.959686   0.450632   0.011623  -0.086852   0.283237
     3  C   -0.072211   0.450632   5.150115   0.326857  -0.113559  -0.052809
     4  C   -0.147612   0.011623   0.326857   5.673618   0.261505   0.006173
     5  S    0.220002  -0.086852  -0.113559   0.261505  15.412506   0.006183
     6  O   -0.083637   0.283237  -0.052809   0.006173   0.006183   8.265355
     7  H    0.015517  -0.040605   0.368527  -0.040770   0.006113   0.002119
     8  C   -0.011737  -0.072736   0.003564  -0.000061   0.000372   0.193137
     9  H    0.005910  -0.002165   0.001854  -0.000294  -0.001587  -0.046195
    10  H    0.006049  -0.024483  -0.001387   0.000154  -0.000421  -0.043894
    11  H    0.000608   0.006889  -0.000336   0.000036  -0.000058  -0.026395
    12  H    0.380790  -0.027511   0.003907   0.002627  -0.022134  -0.004528
    13  H    0.003687   0.002921  -0.013450   0.373807  -0.026572  -0.000089
               7          8          9         10         11         12
     1  C    0.015517  -0.011737   0.005910   0.006049   0.000608   0.380790
     2  C   -0.040605  -0.072736  -0.002165  -0.024483   0.006889  -0.027511
     3  C    0.368527   0.003564   0.001854  -0.001387  -0.000336   0.003907
     4  C   -0.040770  -0.000061  -0.000294   0.000154   0.000036   0.002627
     5  S    0.006113   0.000372  -0.001587  -0.000421  -0.000058  -0.022134
     6  O    0.002119   0.193137  -0.046195  -0.043894  -0.026395  -0.004528
     7  H    0.506583  -0.000281   0.000006   0.000163  -0.000060  -0.000230
     8  C   -0.000281   5.083381   0.369114   0.371972   0.375340   0.001730
     9  H    0.000006   0.369114   0.566278  -0.055979  -0.030261   0.001424
    10  H    0.000163   0.371972  -0.055979   0.599364  -0.031768   0.003024
    11  H   -0.000060   0.375340  -0.030261  -0.031768   0.512679  -0.000208
    12  H   -0.000230   0.001730   0.001424   0.003024  -0.000208   0.444196
    13  H   -0.003444   0.000002  -0.000000   0.000002  -0.000001  -0.000113
              13
     1  C    0.003687
     2  C    0.002921
     3  C   -0.013450
     4  C    0.373807
     5  S   -0.026572
     6  O   -0.000089
     7  H   -0.003444
     8  C    0.000002
     9  H   -0.000000
    10  H    0.000002
    11  H   -0.000001
    12  H   -0.000113
    13  H    0.452293
 Mulliken charges:
               1
     1  C   -0.497556
     2  C    0.307894
     3  C   -0.051704
     4  C   -0.467663
     5  S    0.344501
     6  O   -0.498656
     7  H    0.186362
     8  C   -0.313797
     9  H    0.191896
    10  H    0.177205
    11  H    0.193535
    12  H    0.217026
    13  H    0.210958
 Sum of Mulliken charges =  -0.00000
 Mulliken charges with hydrogens summed into heavy atoms:
               1
     1  C   -0.280530
     2  C    0.307894
     3  C    0.134657
     4  C   -0.256706
     5  S    0.344501
     6  O   -0.498656
     8  C    0.248839
 Electronic spatial extent (au):  <R**2>=            936.8734
 Charge=             -0.0000 electrons
 Dipole moment (field-independent basis, Debye):
    X=             -0.3735    Y=             -0.7745    Z=              0.6459  Tot=              1.0754
 Quadrupole moment (field-independent basis, Debye-Ang):
   XX=            -45.4121   YY=            -46.0031   ZZ=            -52.4308
   XY=              6.9723   XZ=             -1.2556   YZ=              1.1335
 Traceless Quadrupole moment (field-independent basis, Debye-Ang):
   XX=              2.5366   YY=              1.9456   ZZ=             -4.4821
   XY=              6.9723   XZ=             -1.2556   YZ=              1.1335
 Octapole moment (field-independent basis, Debye-Ang**2):
  XXX=            -14.4949  YYY=              3.4062  ZZZ=              0.8491  XYY=             -0.1926
  XXY=             -2.2319  XXZ=              5.5435  XZZ=             -5.9025  YZZ=             -1.3594
  YYZ=             -0.7430  XYZ=             -1.0896
 Hexadecapole moment (field-independent basis, Debye-Ang**3):
 XXXX=           -798.0349 YYYY=           -277.6372 ZZZZ=            -78.0015 XXXY=             39.8452
 XXXZ=             -5.4218 YYYX=              5.1805 YYYZ=              4.9666 ZZZX=             -0.7889
 ZZZY=             -1.5486 XXYY=           -197.5929 XXZZ=           -167.0005 YYZZ=            -68.1812
 XXYZ=              0.7115 YYXZ=              1.4016 ZZXY=             -1.2868
 N-N= 3.447110630916D+02 E-N=-2.263946543534D+03  KE= 6.661292404275D+02
 No NMR shielding tensors so no spin-rotation constants.
 Leave Link  601 at Thu Jan  9 10:03:12 2020, MaxMem=   134217728 cpu:               0.4 elap:               0.1
 (Enter /apps/gaussian/g16-a03/l701.exe)
 ... and contract with generalized density number  0.
 Compute integral first derivatives.
 Leave Link  701 at Thu Jan  9 10:03:13 2020, MaxMem=   134217728 cpu:               0.5 elap:               0.2
 (Enter /apps/gaussian/g16-a03/l702.exe)
 L702 exits ... SP integral derivatives will be done elsewhere.
 Leave Link  702 at Thu Jan  9 10:03:13 2020, MaxMem=   134217728 cpu:               0.1 elap:               0.1
 (Enter /apps/gaussian/g16-a03/l703.exe)
 Integral derivatives from FoFJK, PRISM(SPDF).
 Compute integral first derivatives, UseDBF=F ICtDFT=           0.
 Calling FoFJK, ICntrl=      2127 FMM=F ISym2X=0 I1Cent= 0 IOpClX= 0 NMat=1 NMatS=1 NMatT=0.
 FoFJK:  IHMeth= 1 ICntrl=    2127 DoSepK=F KAlg= 0 I1Cent=           0 FoldK=F
 IRaf=         0 NMat=       1 IRICut=       1 DoRegI=T DoRafI=F ISym2E= 0 IDoP0=0 IntGTp=1.
 FoFCou: FMM=F IPFlag=           0 FMFlag=      100000 FMFlg1=         800
         NFxFlg=           0 DoJE=F BraDBF=F KetDBF=F FulRan=T
         wScrn=  0.000000 ICntrl=      2127 IOpCl=  0 I1Cent=           0 NGrid=           0
         NMat0=    1 NMatS0=      1 NMatT0=    0 NMatD0=    1 NMtDS0=    0 NMtDT0=    0
 Symmetry not used in FoFCou.
 Leave Link  703 at Thu Jan  9 10:03:15 2020, MaxMem=   134217728 cpu:              10.0 elap:               2.5
 (Enter /apps/gaussian/g16-a03/l716.exe)
 Dipole        =-1.46935087D-01-3.04709274D-01 2.54110189D-01
 ***** Axes restored to original set *****
 -------------------------------------------------------------------
 Center     Atomic                   Forces (Hartrees/Bohr)
 Number     Number              X              Y              Z
 -------------------------------------------------------------------
      1        6          -0.012191504   -0.038430546    0.017662411
      2        6           0.008764340    0.012772942   -0.022389340
      3        6           0.001664526    0.031532302    0.004028786
      4        6          -0.009485929   -0.053309584    0.001769262
      5       16          -0.003678956    0.025114067   -0.010976903
      6        8          -0.009312256    0.026696020    0.020883506
      7        1          -0.005348788   -0.002825994    0.002362477
      8        6           0.003438410   -0.008886445   -0.007381488
      9        1           0.014252782    0.001104953    0.005321354
     10        1           0.003154483    0.002360614   -0.014348041
     11        1          -0.005930790   -0.010523546   -0.001524513
     12        1           0.007568818    0.008501535    0.001540336
     13        1           0.007104864    0.005893682    0.003052154
 -------------------------------------------------------------------
 Cartesian Forces:  Max     0.053309584 RMS     0.015724838
 Leave Link  716 at Thu Jan  9 10:03:15 2020, MaxMem=   134217728 cpu:               0.1 elap:               0.0
 (Enter /apps/gaussian/g16-a03/l103.exe)

 GradGradGradGradGradGradGradGradGradGradGradGradGradGradGradGradGradGrad
 Berny optimization.
 FormGI is forming the generalized inverse of G from B-inverse, IUseBI=4.
 Internal  Forces:  Max     0.053078200 RMS     0.012342417
 Search for a local minimum.
 Step number   1 out of a maximum of   64
 All quantities printed in internal units (Hartrees-Bohrs-Radians)
 RMS Force = .12342D-01 SwitMx=.10000D-02 MixMth= 1
 Mixed Optimization -- RFO/linear search
 Second derivative matrix not updated -- first step.
 ITU=  0
     Eigenvalues ---    0.01295   0.01295   0.01354   0.01536   0.01626
     Eigenvalues ---    0.01775   0.01870   0.01902   0.10344   0.10344
     Eigenvalues ---    0.15998   0.16000   0.16000   0.16000   0.16000
     Eigenvalues ---    0.16000   0.22424   0.23452   0.24998   0.25000
     Eigenvalues ---    0.28293   0.28629   0.37230   0.37230   0.37230
     Eigenvalues ---    0.37230   0.37230   0.37230   0.40970   0.40989
     Eigenvalues ---    0.40989   0.41311   0.43913
 RFO step:  Lambda=-3.32607193D-02 EMin= 1.29493787D-02
 Linear search not attempted -- first point.
 Iteration  1 RMS(Cart)=  0.18198673 RMS(Int)=  0.01537631
 Iteration  2 RMS(Cart)=  0.02223311 RMS(Int)=  0.00185856
 Iteration  3 RMS(Cart)=  0.00034584 RMS(Int)=  0.00184726
 Iteration  4 RMS(Cart)=  0.00000027 RMS(Int)=  0.00184726
 ITry= 1 IFail=0 DXMaxC= 5.88D-01 DCOld= 1.00D+10 DXMaxT= 3.00D-01 DXLimC= 3.00D+00 Rises=F
 Variable       Old X    -DE/DX   Delta X   Delta X   Delta X     New X
                                 (Linear)    (Quad)   (Total)
    R1        2.66284  -0.02431   0.00000  -0.05122  -0.05089   2.61194
    R2        3.33719   0.00839   0.00000   0.02893   0.02876   3.36595
    R3        2.02201   0.00020   0.00000   0.00049   0.00049   2.02250
    R4        2.68529   0.00354   0.00000   0.00566   0.00607   2.69137
    R5        2.70231  -0.01161   0.00000  -0.02619  -0.02619   2.67611
    R6        2.66283  -0.03486   0.00000  -0.07500  -0.07500   2.58784
    R7        2.02201   0.00582   0.00000   0.01436   0.01436   2.03637
    R8        3.33719   0.00976   0.00000   0.03145   0.03103   3.36822
    R9        2.02201   0.00271   0.00000   0.00669   0.00669   2.02869
   R10        2.70231   0.02576   0.00000   0.05814   0.05814   2.76045
   R11        2.02201   0.01496   0.00000   0.03688   0.03688   2.05889
   R12        2.02201   0.01278   0.00000   0.03152   0.03152   2.05353
   R13        2.02201   0.01096   0.00000   0.02703   0.02703   2.04904
    A1        1.92785   0.00065   0.00000   0.01259   0.00731   1.93516
    A2        2.17757   0.01032   0.00000   0.04866   0.04908   2.22665
    A3        2.17776  -0.01099   0.00000  -0.06165  -0.06091   2.11684
    A4        1.97527   0.00335   0.00000   0.01488   0.01150   1.98676
    A5        2.15403   0.01918   0.00000   0.06621   0.06790   2.22193
    A6        2.15382  -0.02254   0.00000  -0.08105  -0.07936   2.07446
    A7        1.97526   0.00171   0.00000   0.00739   0.00346   1.97873
    A8        2.15382  -0.00091   0.00000  -0.00377  -0.00216   2.15166
    A9        2.15403  -0.00078   0.00000  -0.00318  -0.00155   2.15248
   A10        1.92785   0.00523   0.00000   0.02583   0.02037   1.94822
   A11        2.17757   0.00463   0.00000   0.02448   0.02567   2.20324
   A12        2.17776  -0.00988   0.00000  -0.05065  -0.04930   2.12846
   A13        1.59708  -0.00874   0.00000  -0.01407  -0.02136   1.57572
   A14        1.91063   0.05308   0.00000   0.18738   0.18738   2.09802
   A15        1.91063   0.00547   0.00000   0.03165   0.03082   1.94145
   A16        1.91063   0.01042   0.00000   0.05588   0.05522   1.96585
   A17        1.91063  -0.01179   0.00000  -0.06632  -0.06606   1.84458
   A18        1.91063  -0.00173   0.00000   0.00169   0.00018   1.91081
   A19        1.91063   0.00086   0.00000   0.00052   0.00061   1.91125
   A20        1.91063  -0.00323   0.00000  -0.02343  -0.02299   1.88764
    D1        0.13151  -0.00593   0.00000  -0.13305  -0.13400  -0.00249
    D2       -3.02206  -0.00645   0.00000  -0.12979  -0.13045   3.13068
    D3       -3.00559  -0.00115   0.00000  -0.03723  -0.03626  -3.04185
    D4        0.12402  -0.00166   0.00000  -0.03397  -0.03271   0.09131
    D5       -0.17373   0.00947   0.00000   0.18711   0.18427   0.01054
    D6        2.96338   0.00476   0.00000   0.09162   0.09398   3.05735
    D7        0.00011  -0.00055   0.00000  -0.01082  -0.01049  -0.01038
    D8        3.12938   0.00085   0.00000   0.02784   0.02802  -3.12579
    D9       -3.12950  -0.00037   0.00000  -0.01525  -0.01482   3.13886
   D10       -0.00023   0.00104   0.00000   0.02342   0.02369   0.02346
   D11        0.53020  -0.00135   0.00000  -0.03520  -0.03521   0.49499
   D12       -2.62459  -0.00170   0.00000  -0.03082  -0.03082  -2.65541
   D13       -0.13168   0.00661   0.00000   0.14905   0.14996   0.01827
   D14        3.00543   0.00293   0.00000   0.06934   0.06856   3.07399
   D15        3.02223   0.00520   0.00000   0.11038   0.11143   3.13366
   D16       -0.12384   0.00152   0.00000   0.03067   0.03004  -0.09381
   D17        0.17379  -0.00911   0.00000  -0.19120  -0.19024  -0.01645
   D18       -2.96332  -0.00547   0.00000  -0.11171  -0.11310  -3.07641
   D19        1.04720   0.00092   0.00000  -0.02989  -0.02866   1.01854
   D20       -1.04720  -0.00669   0.00000  -0.08557  -0.08708  -1.13427
   D21        3.14159  -0.00190   0.00000  -0.05048  -0.05020   3.09139
         Item               Value     Threshold  Converged?
 Maximum Force            0.053078     0.000450     NO 
 RMS     Force            0.012342     0.000300     NO 
 Maximum Displacement     0.587814     0.001800     NO 
 RMS     Displacement     0.192413     0.001200     NO 
 Predicted change in Energy=-2.112549D-02
 Lowest energy point so far.  Saving SCF results.
 GradGradGradGradGradGradGradGradGradGradGradGradGradGradGradGradGradGrad

 Leave Link  103 at Thu Jan  9 10:03:15 2020, MaxMem=   134217728 cpu:               0.1 elap:               0.0
 (Enter /apps/gaussian/g16-a03/l202.exe)
                          Input orientation:                          
 ---------------------------------------------------------------------
 Center     Atomic      Atomic             Coordinates (Angstroms)
 Number     Number       Type             X           Y           Z
 ---------------------------------------------------------------------
      1          6           0        0.690936    2.121623   -0.927066
      2          6           0        0.070422    1.077341   -0.267627
      3          6           0       -0.511465    1.448156    0.978276
      4          6           0       -0.332170    2.769583    1.289733
      5         16           0        0.559042    3.631236    0.009035
      6          8           0       -0.043335   -0.265611   -0.702356
      7          1           0       -1.020351    0.751453    1.623925
      8          6           0        0.972606   -0.842916   -1.578951
      9          1           0        1.960257   -0.798666   -1.121091
     10          1           0        1.003660   -0.365199   -2.554501
     11          1           0        0.684573   -1.878829   -1.719076
     12          1           0        1.121049    2.111090   -1.907038
     13          1           0       -0.732509    3.279916    2.145169
 ---------------------------------------------------------------------
                    Distance matrix (angstroms):
                    1          2          3          4          5
     1  C    0.000000
     2  C    1.382181   0.000000
     3  C    2.351522   1.424209   0.000000
     4  C    2.526023   2.334766   1.369424   0.000000
     5  S    1.781183   2.614895   2.617490   1.782384   0.000000
     6  O    2.507696   1.416139   2.445541   3.642011   4.006789
     7  H    3.363543   2.207704   1.077600   2.158270   3.659987
     8  C    3.048407   2.494172   3.740440   4.793948   4.765582
     9  H    3.190127   2.796298   3.945246   4.878493   4.781697
    10  H    2.988416   2.860358   4.250221   5.137065   4.768742
    11  H    4.078105   3.350048   4.446914   5.629780   5.776067
    12  H    1.070259   2.204569   3.380772   3.572786   2.509588
    13  H    3.578612   3.364167   2.183081   1.073538   2.520834
                    6          7          8          9         10
     6  O    0.000000
     7  H    2.720398   0.000000
     8  C    1.460765   4.095400   0.000000
     9  H    2.115152   4.338434   1.089518   0.000000
    10  H    2.129920   4.775226   1.086681   1.776974   0.000000
    11  H    2.041088   4.582663   1.084303   1.775305   1.758075
    12  H    2.907879   4.347632   2.975874   3.128684   2.562225
    13  H    4.599361   2.597628   5.811560   5.878289   6.195809
                   11         12         13
    11  H    0.000000
    12  H    4.018121   0.000000
    13  H    6.599482   4.606757   0.000000
 Stoichiometry    C5H6OS
 Framework group  C1[X(C5H6OS)]
 Deg. of freedom    33
 Full point group                 C1      NOp   1
 RotChk:  IX=0 Diff= 1.07D-01
 Largest Abelian subgroup         C1      NOp   1
 Largest concise Abelian subgroup C1      NOp   1
                         Standard orientation:                         
 ---------------------------------------------------------------------
 Center     Atomic      Atomic             Coordinates (Angstroms)
 Number     Number       Type             X           Y           Z
 ---------------------------------------------------------------------
      1          6           0        0.111122   -0.946041   -0.130790
      2          6           0       -0.523340    0.281887   -0.122277
      3          6           0        0.364476    1.387472    0.011270
      4          6           0        1.678938    1.018762    0.118800
      5         16           0        1.874470   -0.750498    0.027255
      6          8           0       -1.912507    0.531047   -0.238835
      7          1           0        0.031819    2.411723    0.049641
      8          6           0       -2.878676   -0.464524    0.218539
      9          1           0       -2.741129   -0.691621    1.275212
     10          1           0       -2.836189   -1.384438   -0.358374
     11          1           0       -3.854616   -0.016460    0.068558
     12          1           0       -0.328341   -1.906585   -0.303070
     13          1           0        2.521861    1.681638    0.169386
 ---------------------------------------------------------------------
 Rotational constants (GHZ):           5.5753638           1.4428595           1.1670666
 Leave Link  202 at Thu Jan  9 10:03:15 2020, MaxMem=   134217728 cpu:               0.1 elap:               0.0
 (Enter /apps/gaussian/g16-a03/l301.exe)
 Standard basis: 6-311G (5D, 7F)
 Ernie: Thresh=  0.10000D-02 Tol=  0.10000D-05 Strict=F.
 There are   117 symmetry adapted cartesian basis functions of A   symmetry.
 There are   117 symmetry adapted basis functions of A   symmetry.
   117 basis functions,   226 primitive gaussians,   117 cartesian basis functions
    30 alpha electrons       30 beta electrons
       nuclear repulsion energy       341.1252088781 Hartrees.
 IExCor=  402 DFT=T Ex+Corr=B3LYP ExCW=0 ScaHFX=  0.200000
 ScaDFX=  0.800000  0.720000  1.000000  0.810000 ScalE2=  1.000000  1.000000
 IRadAn=      5 IRanWt=     -1 IRanGd=            0 ICorTp=0 IEmpDi=  4
 NAtoms=   13 NActive=   13 NUniq=   13 SFac= 1.00D+00 NAtFMM=   60 NAOKFM=F Big=F
 Integral buffers will be    131072 words long.
 Raffenetti 2 integral format.
 Two-electron integral symmetry is turned on.
 Leave Link  301 at Thu Jan  9 10:03:16 2020, MaxMem=   134217728 cpu:               0.3 elap:               0.1
 (Enter /apps/gaussian/g16-a03/l302.exe)
 NPDir=0 NMtPBC=     1 NCelOv=     1 NCel=       1 NClECP=     1 NCelD=      1
         NCelK=      1 NCelE2=     1 NClLst=     1 CellRange=     0.0.
 One-electron integrals computed using PRISM.
 One-electron integral symmetry used in STVInt
 NBasis=   117 RedAO= T EigKep=  1.13D-03  NBF=   117
 NBsUse=   117 1.00D-06 EigRej= -1.00D+00 NBFU=   117
 Precomputing XC quadrature grid using
 IXCGrd= 4 IRadAn=           5 IRanWt=          -1 IRanGd=           0 AccXCQ= 0.00D+00.
 Generated NRdTot=       0 NPtTot=           0 NUsed=           0 NTot=          32
 NSgBfM=   117   117   117   117   117 MxSgAt=    13 MxSgA2=    13.
 Leave Link  302 at Thu Jan  9 10:03:16 2020, MaxMem=   134217728 cpu:               0.8 elap:               0.2
 (Enter /apps/gaussian/g16-a03/l303.exe)
 DipDrv:  MaxL=1.
 Leave Link  303 at Thu Jan  9 10:03:16 2020, MaxMem=   134217728 cpu:               0.1 elap:               0.0
 (Enter /apps/gaussian/g16-a03/l401.exe)
 Initial guess from the checkpoint file:  "/tmp/pbs.943020.pbs/Gau-5660.chk"
 B after Tr=    -0.000000    0.000000   -0.000000
         Rot=    0.999913    0.011406    0.004812   -0.004592 Ang=   1.51 deg.
 Guess basis will be translated and rotated to current coordinates.
 JPrj=2 DoOrth=T DoCkMO=T.
 Generating alternative initial guess.
 ExpMin= 7.71D-02 ExpMax= 9.34D+04 ExpMxC= 3.17D+03 IAcc=2 IRadAn=         4 AccDes= 0.00D+00
 Harris functional with IExCor=  402 and IRadAn=       4 diagonalized for initial guess.
 HarFok:  IExCor=  402 AccDes= 0.00D+00 IRadAn=         4 IDoV= 1 UseB2=F ITyADJ=14
 ICtDFT=  3500011 ScaDFX=  1.000000  1.000000  1.000000  1.000000
 FoFCou: FMM=F IPFlag=           0 FMFlag=      100000 FMFlg1=           0
         NFxFlg=           0 DoJE=T BraDBF=F KetDBF=T FulRan=T
         wScrn=  0.000000 ICntrl=       500 IOpCl=  0 I1Cent=   200000004 NGrid=           0
         NMat0=    1 NMatS0=      1 NMatT0=    0 NMatD0=    1 NMtDS0=    0 NMtDT0=    0
 Petite list used in FoFCou.
 Harris En= -667.493131887740    
 Leave Link  401 at Thu Jan  9 10:03:16 2020, MaxMem=   134217728 cpu:               2.0 elap:               0.5
 (Enter /apps/gaussian/g16-a03/l502.exe)
 Keep R1 ints in memory in canonical form, NReq=27598639.
 FoFCou: FMM=F IPFlag=           0 FMFlag=           0 FMFlg1=           0
         NFxFlg=           0 DoJE=F BraDBF=F KetDBF=F FulRan=T
         wScrn=  0.000000 ICntrl=       600 IOpCl=  0 I1Cent=           0 NGrid=           0
         NMat0=    1 NMatS0=   6903 NMatT0=    0 NMatD0=    1 NMtDS0=    0 NMtDT0=    0
 Symmetry not used in FoFCou.
 Two-electron integral symmetry not used.
 Closed shell SCF:
 Using DIIS extrapolation, IDIIS=  1040.
 NGot=   134217728 LenX=   110359045 LenY=   110344915
 Requested convergence on RMS density matrix=1.00D-08 within 128 cycles.
 Requested convergence on MAX density matrix=1.00D-06.
 Requested convergence on             energy=1.00D-06.
 No special actions if energy rises.
 Integral accuracy reduced to 1.0D-05 until final iterations.

 Cycle   1  Pass 0  IDiag  1:
 E= -667.457711774050    
 DIIS: error= 1.23D-02 at cycle   1 NSaved=   1.
 NSaved= 1 IEnMin= 1 EnMin= -667.457711774050     IErMin= 1 ErrMin= 1.23D-02
 ErrMax= 1.23D-02  0.00D+00 EMaxC= 1.00D-01 BMatC= 1.82D-02 BMatP= 1.82D-02
 IDIUse=3 WtCom= 8.77D-01 WtEn= 1.23D-01
 Coeff-Com:  0.100D+01
 Coeff-En:   0.100D+01
 Coeff:      0.100D+01
 Recover alternate guess density for next cycle.
 RMSDP=4.56D-03 MaxDP=7.07D-02              OVMax= 0.00D+00

 Cycle   2  Pass 0  IDiag  1:
 E= -667.279014475531     Delta-E=        0.178697298519 Rises=F Damp=F
 Switch densities from cycles 1 and 2 for lowest energy.
 DIIS: error= 4.31D-02 at cycle   2 NSaved=   2.
 NSaved= 2 IEnMin= 1 EnMin= -667.457711774050     IErMin= 1 ErrMin= 1.23D-02
 ErrMax= 4.31D-02  0.00D+00 EMaxC= 1.00D+00 BMatC= 2.42D-01 BMatP= 1.82D-02
 IDIUse=1 WtCom= 1.00D+00 WtEn= 0.00D+00
 Coeff-Com:  0.932D+00 0.680D-01
 Coeff:      0.932D+00 0.680D-01
 Gap=     0.211 Goal=   None    Shift=    0.000
 RMSDP=2.35D-03 MaxDP=4.67D-02 DE= 1.79D-01 OVMax= 1.64D-01

 Cycle   3  Pass 0  IDiag  1:
 E= -667.494739371853     Delta-E=       -0.215724896322 Rises=F Damp=F
 DIIS: error= 4.53D-03 at cycle   3 NSaved=   3.
 NSaved= 3 IEnMin= 3 EnMin= -667.494739371853     IErMin= 3 ErrMin= 4.53D-03
 ErrMax= 4.53D-03  0.00D+00 EMaxC= 1.00D+00 BMatC= 3.10D-03 BMatP= 1.82D-02
 IDIUse=1 WtCom= 1.00D+00 WtEn= 0.00D+00
 Coeff-Com:  0.646D-02 0.877D-01 0.906D+00
 Coeff:      0.646D-02 0.877D-01 0.906D+00
 Gap=     0.208 Goal=   None    Shift=    0.000
 RMSDP=8.40D-04 MaxDP=1.38D-02 DE=-2.16D-01 OVMax= 3.21D-02

 Cycle   4  Pass 0  IDiag  1:
 E= -667.497327111812     Delta-E=       -0.002587739959 Rises=F Damp=F
 DIIS: error= 3.02D-03 at cycle   4 NSaved=   4.
 NSaved= 4 IEnMin= 4 EnMin= -667.497327111812     IErMin= 4 ErrMin= 3.02D-03
 ErrMax= 3.02D-03  0.00D+00 EMaxC= 1.00D+00 BMatC= 8.19D-04 BMatP= 3.10D-03
 IDIUse=1 WtCom= 1.00D+00 WtEn= 0.00D+00
 Coeff-Com: -0.255D-01 0.302D-01 0.451D+00 0.544D+00
 Coeff:     -0.255D-01 0.302D-01 0.451D+00 0.544D+00
 Gap=     0.203 Goal=   None    Shift=    0.000
 RMSDP=3.66D-04 MaxDP=5.43D-03 DE=-2.59D-03 OVMax= 1.78D-02

 Cycle   5  Pass 0  IDiag  1:
 E= -667.498067086656     Delta-E=       -0.000739974844 Rises=F Damp=F
 DIIS: error= 1.70D-03 at cycle   5 NSaved=   5.
 NSaved= 5 IEnMin= 5 EnMin= -667.498067086656     IErMin= 5 ErrMin= 1.70D-03
 ErrMax= 1.70D-03  0.00D+00 EMaxC= 1.00D+00 BMatC= 1.79D-04 BMatP= 8.19D-04
 IDIUse=1 WtCom= 1.00D+00 WtEn= 0.00D+00
 Coeff-Com: -0.141D-01 0.569D-02 0.174D+00 0.350D+00 0.485D+00
 Coeff:     -0.141D-01 0.569D-02 0.174D+00 0.350D+00 0.485D+00
 Gap=     0.205 Goal=   None    Shift=    0.000
 RMSDP=1.29D-04 MaxDP=2.50D-03 DE=-7.40D-04 OVMax= 5.71D-03

 Cycle   6  Pass 0  IDiag  1:
 E= -667.498253995369     Delta-E=       -0.000186908714 Rises=F Damp=F
 DIIS: error= 3.16D-04 at cycle   6 NSaved=   6.
 NSaved= 6 IEnMin= 6 EnMin= -667.498253995369     IErMin= 6 ErrMin= 3.16D-04
 ErrMax= 3.16D-04  0.00D+00 EMaxC= 1.00D+00 BMatC= 9.52D-06 BMatP= 1.79D-04
 IDIUse=1 WtCom= 1.00D+00 WtEn= 0.00D+00
 Coeff-Com: -0.525D-02 0.424D-03 0.572D-01 0.152D+00 0.265D+00 0.531D+00
 Coeff:     -0.525D-02 0.424D-03 0.572D-01 0.152D+00 0.265D+00 0.531D+00
 Gap=     0.205 Goal=   None    Shift=    0.000
 RMSDP=3.18D-05 MaxDP=4.75D-04 DE=-1.87D-04 OVMax= 1.37D-03

 Cycle   7  Pass 0  IDiag  1:
 E= -667.498263054195     Delta-E=       -0.000009058826 Rises=F Damp=F
 DIIS: error= 8.82D-05 at cycle   7 NSaved=   7.
 NSaved= 7 IEnMin= 7 EnMin= -667.498263054195     IErMin= 7 ErrMin= 8.82D-05
 ErrMax= 8.82D-05  0.00D+00 EMaxC= 1.00D+00 BMatC= 9.49D-07 BMatP= 9.52D-06
 IDIUse=1 WtCom= 1.00D+00 WtEn= 0.00D+00
 Coeff-Com: -0.179D-02-0.856D-04 0.169D-01 0.556D-01 0.106D+00 0.291D+00
 Coeff-Com:  0.533D+00
 Coeff:     -0.179D-02-0.856D-04 0.169D-01 0.556D-01 0.106D+00 0.291D+00
 Coeff:      0.533D+00
 Gap=     0.205 Goal=   None    Shift=    0.000
 RMSDP=1.13D-05 MaxDP=2.27D-04 DE=-9.06D-06 OVMax= 5.41D-04

 Cycle   8  Pass 0  IDiag  1:
 E= -667.498263826266     Delta-E=       -0.000000772071 Rises=F Damp=F
 DIIS: error= 3.94D-05 at cycle   8 NSaved=   8.
 NSaved= 8 IEnMin= 8 EnMin= -667.498263826266     IErMin= 8 ErrMin= 3.94D-05
 ErrMax= 3.94D-05  0.00D+00 EMaxC= 1.00D+00 BMatC= 2.05D-07 BMatP= 9.49D-07
 IDIUse=1 WtCom= 1.00D+00 WtEn= 0.00D+00
 Coeff-Com: -0.229D-03-0.854D-04 0.104D-03 0.856D-02 0.212D-01 0.963D-01
 Coeff-Com:  0.343D+00 0.531D+00
 Coeff:     -0.229D-03-0.854D-04 0.104D-03 0.856D-02 0.212D-01 0.963D-01
 Coeff:      0.343D+00 0.531D+00
 Gap=     0.205 Goal=   None    Shift=    0.000
 RMSDP=4.05D-06 MaxDP=5.27D-05 DE=-7.72D-07 OVMax= 1.75D-04

 Initial convergence to 1.0D-05 achieved.  Increase integral accuracy.
 Cycle   9  Pass 1  IDiag  1:
 E= -667.498268378457     Delta-E=       -0.000004552191 Rises=F Damp=F
 DIIS: error= 7.64D-06 at cycle   1 NSaved=   1.
 NSaved= 1 IEnMin= 1 EnMin= -667.498268378457     IErMin= 1 ErrMin= 7.64D-06
 ErrMax= 7.64D-06  0.00D+00 EMaxC= 1.00D+00 BMatC= 8.62D-09 BMatP= 8.62D-09
 IDIUse=1 WtCom= 1.00D+00 WtEn= 0.00D+00
 Coeff-Com:  0.100D+01
 Coeff:      0.100D+01
 Gap=     0.205 Goal=   None    Shift=    0.000
 RMSDP=4.05D-06 MaxDP=5.27D-05 DE=-4.55D-06 OVMax= 9.45D-05

 Cycle  10  Pass 1  IDiag  1:
 E= -667.498268370098     Delta-E=        0.000000008358 Rises=F Damp=F
 DIIS: error= 1.63D-05 at cycle   2 NSaved=   2.
 NSaved= 2 IEnMin= 1 EnMin= -667.498268378457     IErMin= 1 ErrMin= 7.64D-06
 ErrMax= 1.63D-05  0.00D+00 EMaxC= 1.00D+00 BMatC= 2.03D-08 BMatP= 8.62D-09
 IDIUse=1 WtCom= 1.00D+00 WtEn= 0.00D+00
 Coeff-Com:  0.617D+00 0.383D+00
 Coeff:      0.617D+00 0.383D+00
 Gap=     0.205 Goal=   None    Shift=    0.000
 RMSDP=1.44D-06 MaxDP=2.44D-05 DE= 8.36D-09 OVMax= 6.73D-05

 Cycle  11  Pass 1  IDiag  1:
 E= -667.498268389764     Delta-E=       -0.000000019666 Rises=F Damp=F
 DIIS: error= 2.60D-06 at cycle   3 NSaved=   3.
 NSaved= 3 IEnMin= 3 EnMin= -667.498268389764     IErMin= 3 ErrMin= 2.60D-06
 ErrMax= 2.60D-06  0.00D+00 EMaxC= 1.00D+00 BMatC= 7.68D-10 BMatP= 8.62D-09
 IDIUse=1 WtCom= 1.00D+00 WtEn= 0.00D+00
 Coeff-Com:  0.159D+00 0.180D+00 0.661D+00
 Coeff:      0.159D+00 0.180D+00 0.661D+00
 Gap=     0.205 Goal=   None    Shift=    0.000
 RMSDP=3.49D-07 MaxDP=5.86D-06 DE=-1.97D-08 OVMax= 2.00D-05

 Cycle  12  Pass 1  IDiag  1:
 E= -667.498268390353     Delta-E=       -0.000000000589 Rises=F Damp=F
 DIIS: error= 1.23D-06 at cycle   4 NSaved=   4.
 NSaved= 4 IEnMin= 4 EnMin= -667.498268390353     IErMin= 4 ErrMin= 1.23D-06
 ErrMax= 1.23D-06  0.00D+00 EMaxC= 1.00D+00 BMatC= 2.00D-10 BMatP= 7.68D-10
 IDIUse=1 WtCom= 1.00D+00 WtEn= 0.00D+00
 Coeff-Com: -0.122D-01 0.386D-01 0.391D+00 0.583D+00
 Coeff:     -0.122D-01 0.386D-01 0.391D+00 0.583D+00
 Gap=     0.205 Goal=   None    Shift=    0.000
 RMSDP=1.31D-07 MaxDP=2.03D-06 DE=-5.89D-10 OVMax= 6.52D-06

 Cycle  13  Pass 1  IDiag  1:
 E= -667.498268390536     Delta-E=       -0.000000000183 Rises=F Damp=F
 DIIS: error= 4.97D-07 at cycle   5 NSaved=   5.
 NSaved= 5 IEnMin= 5 EnMin= -667.498268390536     IErMin= 5 ErrMin= 4.97D-07
 ErrMax= 4.97D-07  0.00D+00 EMaxC= 1.00D+00 BMatC= 1.49D-11 BMatP= 2.00D-10
 IDIUse=1 WtCom= 1.00D+00 WtEn= 0.00D+00
 Coeff-Com: -0.139D-01 0.151D-01 0.202D+00 0.347D+00 0.449D+00
 Coeff:     -0.139D-01 0.151D-01 0.202D+00 0.347D+00 0.449D+00
 Gap=     0.205 Goal=   None    Shift=    0.000
 RMSDP=3.75D-08 MaxDP=6.81D-07 DE=-1.83D-10 OVMax= 1.99D-06

 Cycle  14  Pass 1  IDiag  1:
 E= -667.498268390550     Delta-E=       -0.000000000013 Rises=F Damp=F
 DIIS: error= 1.40D-07 at cycle   6 NSaved=   6.
 NSaved= 6 IEnMin= 6 EnMin= -667.498268390550     IErMin= 6 ErrMin= 1.40D-07
 ErrMax= 1.40D-07  0.00D+00 EMaxC= 1.00D+00 BMatC= 1.08D-12 BMatP= 1.49D-11
 IDIUse=1 WtCom= 1.00D+00 WtEn= 0.00D+00
 Coeff-Com: -0.702D-02 0.558D-02 0.850D-01 0.152D+00 0.270D+00 0.494D+00
 Coeff:     -0.702D-02 0.558D-02 0.850D-01 0.152D+00 0.270D+00 0.494D+00
 Gap=     0.205 Goal=   None    Shift=    0.000
 RMSDP=1.18D-08 MaxDP=1.82D-07 DE=-1.34D-11 OVMax= 5.86D-07

 Cycle  15  Pass 1  IDiag  1:
 E= -667.498268390556     Delta-E=       -0.000000000006 Rises=F Damp=F
 DIIS: error= 1.82D-08 at cycle   7 NSaved=   7.
 NSaved= 7 IEnMin= 7 EnMin= -667.498268390556     IErMin= 7 ErrMin= 1.82D-08
 ErrMax= 1.82D-08  0.00D+00 EMaxC= 1.00D+00 BMatC= 6.28D-14 BMatP= 1.08D-12
 IDIUse=1 WtCom= 1.00D+00 WtEn= 0.00D+00
 Coeff-Com: -0.471D-03-0.538D-03-0.703D-03 0.899D-03 0.403D-01 0.217D+00
 Coeff-Com:  0.743D+00
 Coeff:     -0.471D-03-0.538D-03-0.703D-03 0.899D-03 0.403D-01 0.217D+00
 Coeff:      0.743D+00
 Gap=     0.205 Goal=   None    Shift=    0.000
 RMSDP=3.50D-09 MaxDP=4.63D-08 DE=-6.14D-12 OVMax= 1.42D-07

 SCF Done:  E(RB3LYP) =  -667.498268391     A.U. after   15 cycles
            NFock= 15  Conv=0.35D-08     -V/T= 2.0022
 KE= 6.660556674062D+02 PE=-2.256920670131D+03 EE= 5.822415254567D+02
 Leave Link  502 at Thu Jan  9 10:03:26 2020, MaxMem=   134217728 cpu:              38.5 elap:              10.0
 (Enter /apps/gaussian/g16-a03/l701.exe)
 ... and contract with generalized density number  0.
 Compute integral first derivatives.
 Leave Link  701 at Thu Jan  9 10:03:26 2020, MaxMem=   134217728 cpu:               0.5 elap:               0.1
 (Enter /apps/gaussian/g16-a03/l702.exe)
 L702 exits ... SP integral derivatives will be done elsewhere.
 Leave Link  702 at Thu Jan  9 10:03:27 2020, MaxMem=   134217728 cpu:               0.1 elap:               0.0
 (Enter /apps/gaussian/g16-a03/l703.exe)
 Integral derivatives from FoFJK, PRISM(SPDF).
 Compute integral first derivatives, UseDBF=F ICtDFT=           0.
 Calling FoFJK, ICntrl=      2127 FMM=F ISym2X=0 I1Cent= 0 IOpClX= 0 NMat=1 NMatS=1 NMatT=0.
 FoFJK:  IHMeth= 1 ICntrl=    2127 DoSepK=F KAlg= 0 I1Cent=           0 FoldK=F
 IRaf=         0 NMat=       1 IRICut=       1 DoRegI=T DoRafI=F ISym2E= 0 IDoP0=0 IntGTp=1.
 FoFCou: FMM=F IPFlag=           0 FMFlag=      100000 FMFlg1=         800
         NFxFlg=           0 DoJE=F BraDBF=F KetDBF=F FulRan=T
         wScrn=  0.000000 ICntrl=      2127 IOpCl=  0 I1Cent=           0 NGrid=           0
         NMat0=    1 NMatS0=      1 NMatT0=    0 NMatD0=    1 NMtDS0=    0 NMtDT0=    0
 Symmetry not used in FoFCou.
 Leave Link  703 at Thu Jan  9 10:03:29 2020, MaxMem=   134217728 cpu:               9.3 elap:               2.3
 (Enter /apps/gaussian/g16-a03/l716.exe)
 Dipole        =-3.95255573D-01-2.45431506D-01 2.24736040D-01
 ***** Axes restored to original set *****
 -------------------------------------------------------------------
 Center     Atomic                   Forces (Hartrees/Bohr)
 Number     Number              X              Y              Z
 -------------------------------------------------------------------
      1        6          -0.008772325   -0.021742854    0.001024636
      2        6           0.011967779   -0.005467739   -0.017232435
      3        6           0.000155691    0.007456098    0.009090735
      4        6          -0.010864563   -0.015182169    0.000902998
      5       16           0.003802158    0.012502147   -0.000635327
      6        8          -0.000666599    0.010109780    0.005594690
      7        1          -0.000617737   -0.001224729   -0.001161281
      8        6          -0.000648334    0.002925531    0.001551233
      9        1           0.000949286    0.001534872    0.001638730
     10        1          -0.001294197    0.003904297   -0.002404017
     11        1          -0.001845104   -0.000701911    0.001972330
     12        1           0.003920692    0.002252945   -0.000602937
     13        1           0.003913254    0.003633733    0.000260645
 -------------------------------------------------------------------
 Cartesian Forces:  Max     0.021742854 RMS     0.007005498
 Leave Link  716 at Thu Jan  9 10:03:29 2020, MaxMem=   134217728 cpu:               0.1 elap:               0.0
 (Enter /apps/gaussian/g16-a03/l103.exe)

 GradGradGradGradGradGradGradGradGradGradGradGradGradGradGradGradGradGrad
 Berny optimization.
 Using GEDIIS/GDIIS optimizer.
 FormGI is forming the generalized inverse of G from B-inverse, IUseBI=4.
 Internal  Forces:  Max     0.019136643 RMS     0.004683301
 Search for a local minimum.
 Step number   2 out of a maximum of   64
 All quantities printed in internal units (Hartrees-Bohrs-Radians)
 RMS Force = .46833D-02 SwitMx=.10000D-02 MixMth= 1
 Mixed Optimization -- RFO/linear search
 Update second derivatives using D2CorX and points    1    2
 DE= -1.53D-02 DEPred=-2.11D-02 R= 7.26D-01
 TightC=F SS=  1.41D+00  RLast= 5.17D-01 DXNew= 5.0454D-01 1.5503D+00
 Trust test= 7.26D-01 RLast= 5.17D-01 DXMaxT set to 5.05D-01
 ITU=  1  0
 Use linear search instead of GDIIS.
     Eigenvalues ---    0.01282   0.01295   0.01539   0.01587   0.01737
     Eigenvalues ---    0.01850   0.01868   0.02035   0.09984   0.10611
     Eigenvalues ---    0.14661   0.15932   0.15986   0.15994   0.16000
     Eigenvalues ---    0.16275   0.22261   0.23458   0.24259   0.26235
     Eigenvalues ---    0.28363   0.30398   0.35663   0.37230   0.37230
     Eigenvalues ---    0.37230   0.37230   0.37278   0.39247   0.40997
     Eigenvalues ---    0.41343   0.42356   0.45381
 RFO step:  Lambda=-5.35722997D-03 EMin= 1.28157736D-02
 Quartic linear search produced a step of  0.00948.
 Iteration  1 RMS(Cart)=  0.10109822 RMS(Int)=  0.00561620
 Iteration  2 RMS(Cart)=  0.00715443 RMS(Int)=  0.00061970
 Iteration  3 RMS(Cart)=  0.00003139 RMS(Int)=  0.00061951
 Iteration  4 RMS(Cart)=  0.00000000 RMS(Int)=  0.00061951
 ITry= 1 IFail=0 DXMaxC= 3.66D-01 DCOld= 1.00D+10 DXMaxT= 5.05D-01 DXLimC= 3.00D+00 Rises=F
 Variable       Old X    -DE/DX   Delta X   Delta X   Delta X     New X
                                 (Linear)    (Quad)   (Total)
    R1        2.61194  -0.01300  -0.00048  -0.03653  -0.03715   2.57479
    R2        3.36595   0.00776   0.00027   0.03012   0.03031   3.39626
    R3        2.02250   0.00211   0.00000   0.00565   0.00565   2.02815
    R4        2.69137   0.00624   0.00006   0.01515   0.01518   2.70654
    R5        2.67611  -0.01914  -0.00025  -0.04972  -0.04997   2.62614
    R6        2.58784  -0.00711  -0.00071  -0.02596  -0.02656   2.56128
    R7        2.03637   0.00039   0.00014   0.00299   0.00313   2.03950
    R8        3.36822   0.00700   0.00029   0.02864   0.02905   3.39727
    R9        2.02869   0.00048   0.00006   0.00218   0.00224   2.03093
   R10        2.76045  -0.00666   0.00055  -0.00809  -0.00754   2.75291
   R11        2.05889   0.00161   0.00035   0.00932   0.00967   2.06856
   R12        2.05353   0.00384   0.00030   0.01449   0.01478   2.06831
   R13        2.04904   0.00091   0.00026   0.00610   0.00636   2.05539
    A1        1.93516  -0.00047   0.00007  -0.00188  -0.00236   1.93281
    A2        2.22665   0.00338   0.00047   0.02993   0.02986   2.25651
    A3        2.11684  -0.00276  -0.00058  -0.02256  -0.02374   2.09311
    A4        1.98676   0.00384   0.00011   0.01458   0.01475   2.00151
    A5        2.22193  -0.00245   0.00064   0.00063   0.00125   2.22318
    A6        2.07446  -0.00138  -0.00075  -0.01523  -0.01601   2.05845
    A7        1.97873  -0.00116   0.00003  -0.00557  -0.00526   1.97346
    A8        2.15166  -0.00101  -0.00002  -0.00675  -0.00700   2.14467
    A9        2.15248   0.00219  -0.00001   0.01277   0.01255   2.16503
   A10        1.94822   0.00031   0.00019   0.00599   0.00538   1.95361
   A11        2.20324   0.00463   0.00024   0.03427   0.03301   2.23625
   A12        2.12846  -0.00475  -0.00047  -0.03319  -0.03514   2.09332
   A13        1.57572  -0.00249  -0.00020  -0.01279  -0.01254   1.56319
   A14        2.09802  -0.01458   0.00178  -0.03164  -0.02987   2.06815
   A15        1.94145  -0.00142   0.00029  -0.00549  -0.00528   1.93617
   A16        1.96585  -0.00312   0.00052  -0.01212  -0.01169   1.95417
   A17        1.84458  -0.00240  -0.00063  -0.02203  -0.02275   1.82182
   A18        1.91081   0.00164   0.00000   0.00735   0.00727   1.91809
   A19        1.91125   0.00219   0.00001   0.01439   0.01431   1.92556
   A20        1.88764   0.00329  -0.00022   0.01861   0.01828   1.90592
    D1       -0.00249  -0.00003  -0.00127  -0.01683  -0.01839  -0.02088
    D2        3.13068  -0.00020  -0.00124  -0.01926  -0.02037   3.11031
    D3       -3.04185  -0.00150  -0.00034  -0.07688  -0.07799  -3.11984
    D4        0.09131  -0.00168  -0.00031  -0.07931  -0.07996   0.01135
    D5        0.01054  -0.00046   0.00175   0.00293   0.00503   0.01558
    D6        3.05735   0.00132   0.00089   0.06207   0.06174   3.11910
    D7       -0.01038   0.00065  -0.00010   0.02654   0.02652   0.01613
    D8       -3.12579  -0.00006   0.00027   0.00755   0.00855  -3.11723
    D9        3.13886   0.00081  -0.00014   0.02867   0.02822  -3.11610
   D10        0.02346   0.00011   0.00022   0.00969   0.01026   0.03372
   D11        0.49499  -0.00283  -0.00033  -0.16142  -0.16199   0.33300
   D12       -2.65541  -0.00299  -0.00029  -0.16382  -0.16388  -2.81929
   D13        0.01827  -0.00099   0.00142  -0.02349  -0.02160  -0.00332
   D14        3.07399   0.00109   0.00065   0.06746   0.06956  -3.13964
   D15        3.13366  -0.00034   0.00106  -0.00483  -0.00373   3.12993
   D16       -0.09381   0.00174   0.00028   0.08612   0.08743  -0.00638
   D17       -0.01645   0.00081  -0.00180   0.01174   0.00964  -0.00681
   D18       -3.07641  -0.00169  -0.00107  -0.07844  -0.07678   3.12999
   D19        1.01854  -0.00104  -0.00027  -0.03411  -0.03440   0.98414
   D20       -1.13427   0.00019  -0.00083  -0.03064  -0.03143  -1.16570
   D21        3.09139  -0.00061  -0.00048  -0.03296  -0.03346   3.05793
         Item               Value     Threshold  Converged?
 Maximum Force            0.019137     0.000450     NO 
 RMS     Force            0.004683     0.000300     NO 
 Maximum Displacement     0.365614     0.001800     NO 
 RMS     Displacement     0.103285     0.001200     NO 
 Predicted change in Energy=-2.948224D-03
 Lowest energy point so far.  Saving SCF results.
 GradGradGradGradGradGradGradGradGradGradGradGradGradGradGradGradGradGrad

 Leave Link  103 at Thu Jan  9 10:03:29 2020, MaxMem=   134217728 cpu:               0.1 elap:               0.0
 (Enter /apps/gaussian/g16-a03/l202.exe)
                          Input orientation:                          
 ---------------------------------------------------------------------
 Center     Atomic      Atomic             Coordinates (Angstroms)
 Number     Number       Type             X           Y           Z
 ---------------------------------------------------------------------
      1          6           0        0.748701    2.050065   -0.892215
      2          6           0        0.108369    1.044560   -0.232366
      3          6           0       -0.527472    1.440314    0.988452
      4          6           0       -0.389643    2.762074    1.254873
      5         16           0        0.560253    3.607728   -0.015757
      6          8           0        0.003289   -0.285918   -0.619711
      7          1           0       -1.052853    0.746777    1.627024
      8          6           0        0.948936   -0.800914   -1.600897
      9          1           0        1.980218   -0.655874   -1.263784
     10          1           0        0.810185   -0.340509   -2.584115
     11          1           0        0.718737   -1.861883   -1.667021
     12          1           0        1.279332    2.021154   -1.824664
     13          1           0       -0.765337    3.311603    2.098615
 ---------------------------------------------------------------------
                    Distance matrix (angstroms):
                    1          2          3          4          5
     1  C    0.000000
     2  C    1.362522   0.000000
     3  C    2.353152   1.432240   0.000000
     4  C    2.532345   2.325887   1.355370   0.000000
     5  S    1.797222   2.611695   2.624741   1.797758   0.000000
     6  O    2.467127   1.389695   2.418217   3.599822   3.979378
     7  H    3.360168   2.212339   1.079256   2.154012   3.672313
     8  C    2.944555   2.446468   3.729291   4.758372   4.701050
     9  H    2.996132   2.731139   3.969267   4.862330   4.663923
    10  H    2.929360   2.818099   4.209975   5.079708   4.716726
    11  H    3.988052   3.298211   4.416908   5.580945   5.715631
    12  H    1.073250   2.204609   3.393455   3.580222   2.511262
    13  H    3.581739   3.366945   2.188781   1.074723   2.513056
                    6          7          8          9         10
     6  O    0.000000
     7  H    2.688813   0.000000
     8  C    1.456776   4.101461   0.000000
     9  H    2.111858   4.418565   1.094634   0.000000
    10  H    2.124368   4.731468   1.094505   1.792122   0.000000
    11  H    2.022965   4.560084   1.087667   1.791198   1.778764
    12  H    2.898755   4.356291   2.850140   2.823527   2.524740
    13  H    4.574084   2.623623   5.791193   5.880874   6.143952
                   11         12         13
    11  H    0.000000
    12  H    3.926460   0.000000
    13  H    6.568671   4.608476   0.000000
 Stoichiometry    C5H6OS
 Framework group  C1[X(C5H6OS)]
 Deg. of freedom    33
 Full point group                 C1      NOp   1
 RotChk:  IX=0 Diff= 2.40D-02
 Largest Abelian subgroup         C1      NOp   1
 Largest concise Abelian subgroup C1      NOp   1
                         Standard orientation:                         
 ---------------------------------------------------------------------
 Center     Atomic      Atomic             Coordinates (Angstroms)
 Number     Number       Type             X           Y           Z
 ---------------------------------------------------------------------
      1          6           0        0.065939   -0.930752   -0.076744
      2          6           0       -0.529822    0.294619   -0.075671
      3          6           0        0.376092    1.399900    0.019116
      4          6           0        1.675665    1.018534    0.071038
      5         16           0        1.853815   -0.769318    0.009540
      6          8           0       -1.888476    0.572219   -0.166493
      7          1           0        0.045907    2.426844    0.053142
      8          6           0       -2.836964   -0.489123    0.143539
      9          1           0       -2.666995   -0.883759    1.150314
     10          1           0       -2.794483   -1.302570   -0.587515
     11          1           0       -3.810231   -0.006976    0.086052
     12          1           0       -0.380656   -1.903490   -0.155486
     13          1           0        2.547766    1.642216    0.145128
 ---------------------------------------------------------------------
 Rotational constants (GHZ):           5.5302760           1.4805103           1.1821996
 Leave Link  202 at Thu Jan  9 10:03:29 2020, MaxMem=   134217728 cpu:               0.1 elap:               0.0
 (Enter /apps/gaussian/g16-a03/l301.exe)
 Standard basis: 6-311G (5D, 7F)
 Ernie: Thresh=  0.10000D-02 Tol=  0.10000D-05 Strict=F.
 There are   117 symmetry adapted cartesian basis functions of A   symmetry.
 There are   117 symmetry adapted basis functions of A   symmetry.
   117 basis functions,   226 primitive gaussians,   117 cartesian basis functions
    30 alpha electrons       30 beta electrons
       nuclear repulsion energy       342.6141206145 Hartrees.
 IExCor=  402 DFT=T Ex+Corr=B3LYP ExCW=0 ScaHFX=  0.200000
 ScaDFX=  0.800000  0.720000  1.000000  0.810000 ScalE2=  1.000000  1.000000
 IRadAn=      5 IRanWt=     -1 IRanGd=            0 ICorTp=0 IEmpDi=  4
 NAtoms=   13 NActive=   13 NUniq=   13 SFac= 1.00D+00 NAtFMM=   60 NAOKFM=F Big=F
 Integral buffers will be    131072 words long.
 Raffenetti 2 integral format.
 Two-electron integral symmetry is turned on.
 Leave Link  301 at Thu Jan  9 10:03:29 2020, MaxMem=   134217728 cpu:               0.3 elap:               0.1
 (Enter /apps/gaussian/g16-a03/l302.exe)
 NPDir=0 NMtPBC=     1 NCelOv=     1 NCel=       1 NClECP=     1 NCelD=      1
         NCelK=      1 NCelE2=     1 NClLst=     1 CellRange=     0.0.
 One-electron integrals computed using PRISM.
 One-electron integral symmetry used in STVInt
 NBasis=   117 RedAO= T EigKep=  1.05D-03  NBF=   117
 NBsUse=   117 1.00D-06 EigRej= -1.00D+00 NBFU=   117
[...]
   yyz       -0.851326D+00     -0.735480D-02     -0.272966D-02
   zxz       -0.228096D+02     -0.197057D+00     -0.731358D-01
   zyz       -0.296926D+02     -0.256521D+00     -0.952051D-01
   zzz       -0.558611D+02     -0.482596D+00     -0.179111D+00

 ----------------------------------------------------------------------

 Dipole orientation:
     6          1.42668686         -4.07440683         -0.77290551
     6          0.49233214         -1.67387132         -0.87733445
     6          0.12004240         -0.71306520         -3.39529470
     6          0.77048050         -2.38163650         -5.22714137
    16          1.91461847         -5.32429167         -3.92220624
     8         -0.11963388         -0.10242053          1.13050537
     1         -0.60777189          1.15974409         -3.73621843
     6          0.26406437         -1.09068460          3.66371595
     1          2.25298089         -1.54451063          3.98217503
     1         -0.89448208         -2.76993127          3.98063613
     1         -0.32083599          0.41008151          4.93106433
     1          1.87727121         -5.23573403          0.82580789
     1          0.68953266         -2.16832284         -7.24449118

 Electric dipole moment (dipole orientation):
 (Debye = 10**-18 statcoulomb cm , SI units = C m)
                  (au)            (Debye)         (10**-30 SI)
   Tot        0.536864D+00      0.136457D+01      0.455172D+01
   x          0.000000D+00      0.000000D+00      0.000000D+00
   y          0.000000D+00      0.000000D+00      0.000000D+00
   z          0.536864D+00      0.136457D+01      0.455172D+01

 Dipole polarizability, Alpha (dipole orientation).
 (esu units = cm**3 , SI units = C**2 m**2 J**-1)
 Alpha(0;0):
               (au)            (10**-24 esu)      (10**-40 SI)
   iso        0.686160D+02      0.101678D+02      0.113132D+02
   aniso      0.523618D+02      0.775922D+01      0.863330D+01
   xx         0.417633D+02      0.618869D+01      0.688584D+01
   yx        -0.154536D+02     -0.228998D+01     -0.254795D+01
   yy         0.754542D+02      0.111812D+02      0.124407D+02
   zx        -0.348109D+01     -0.515844D+00     -0.573954D+00
   zy         0.887622D+01      0.131532D+01      0.146349D+01
   zz         0.886304D+02      0.131337D+02      0.146132D+02

 First dipole hyperpolarizability, Beta (dipole orientation).
 ||, _|_  parallel and perpendicular components, (z) with respect to z axis,
 vector components x,y,z.  Values do not include the 1/n! factor of 1/2.
 (esu units = statvolt**-1 cm**4 , SI units = C**3 m**3 J**-2)
 Beta(0;0,0):
               (au)            (10**-30 esu)      (10**-50 SI)
   || (z)     0.403543D+01      0.348630D-01      0.129391D-01
   _|_(z)     0.134514D+01      0.116210D-01      0.431302D-02
   x          0.128584D+03      0.111087D+01      0.412287D+00
   y         -0.330375D+03     -0.285418D+01     -0.105930D+01
   z          0.201772D+02      0.174315D+00      0.646953D-01
   ||         0.710179D+02      0.613539D+00      0.227709D+00
   xxx        0.214162D+02      0.185020D+00      0.686682D-01
   xxy       -0.170547D+02     -0.147339D+00     -0.546835D-01
   yxy        0.228843D+01      0.197703D-01      0.733755D-02
   yyy       -0.439165D+02     -0.379405D+00     -0.140812D+00
   xxz        0.295799D+02      0.255547D+00      0.948439D-01
   yxz        0.409230D+02      0.353543D+00      0.131214D+00
   yyz       -0.596765D+02     -0.515558D+00     -0.191344D+00
   zxz        0.191567D+02      0.165499D+00      0.614234D-01
   zyz       -0.491537D+02     -0.424650D+00     -0.157605D+00
   zzz        0.368223D+02      0.318116D+00      0.118066D+00

 ----------------------------------------------------------------------
 1\1\GINC-CX1-141-15-2\Freq\RB3LYP\6-311G\C5H6O1S1\NS5018\09-Jan-2020\0
 \\#P Geom=AllCheck Guess=TCheck SCRF=Check GenChk RB3LYP/6-311G Freq\\
 OT_opt_freq.com\\0,1\C,0.8453739634,1.9966244011,-0.8275222213\C,0.194
 1763474,1.0028142001,-0.1570812639\C,-0.5406160676,1.4429505342,1.0001
 116068\C,-0.4528049833,2.7781470967,1.2176614456\S,0.5706124296,3.5981
 038767,-0.02674044\O,0.1659864421,-0.3502418352,-0.4632632175\H,-1.097
 8706156,0.7554821724,1.616482525\C,0.9112753139,-0.7837136481,-1.63303
 01461\H,1.9756086649,-0.5644504007,-1.5193400976\H,0.5297204935,-0.303
 4641662,-2.537136588\H,0.7594125949,-1.8559617024,-1.6922231904\H,1.45
 66805544,1.9534892718,-1.7076849463\H,-0.8948412677,3.3693967196,1.998
 1977436\\Version=ES64L-G16RevA.03\State=1-A\HF=-667.5029267\RMSD=9.134
 e-09\RMSF=2.654e-05\ZeroPoint=0.0988606\Thermal=0.1055979\Dipole=0.194
 6045,-0.3432535,-0.3640449\DipoleDeriv=-0.3319308,-0.0737137,-0.118423
 6,0.0891098,0.1102687,0.0047603,-0.0768335,0.2358594,-0.2322675,0.1217
 867,-0.0878593,0.0339186,-0.0824457,1.1434381,0.3685834,0.0352393,0.37
 61116,0.2076715,-0.0812097,0.0818101,-0.0547687,-0.0534072,-0.3738826,
 0.0144945,-0.0894264,-0.1778238,-0.0528889,-0.1038731,0.2580289,-0.218
 2755,0.2319193,0.2921191,-0.1767125,-0.224993,-0.2136765,-0.0386824,0.
 0005977,-0.1230906,0.0818783,-0.1059255,-0.3361861,0.0437322,0.0863143
 ,0.0682714,-0.0248333,-0.3900244,0.1463831,0.1058972,0.11139,-1.378656
 8,-0.4238703,0.0970146,-0.4732982,-0.6007949,0.1249564,-0.0507456,0.08
 16869,-0.0775787,0.0319442,0.0693944,0.0748752,0.0313566,0.0931259,0.4
 196241,-0.2603056,-0.1293825,-0.0797727,0.4235931,0.1257032,-0.0832108
 ,0.3822184,0.5913489,-0.155741,0.043823,0.021714,-0.0832397,0.0665837,
 -0.0056428,-0.0284763,-0.0798328,-0.0067113,0.0026973,0.0851015,-0.038
 4504,0.0530624,0.0293947,0.1213234,-0.0289889,-0.0305119,-0.1278805,0.
 0925629,-0.0275072,0.0152705,-0.0083626,-0.1354587,-0.0506227,0.020176
 4,-0.023435,0.0736407,0.1612574,0.0032937,0.1103972,0.0140177,0.064211
 1,-0.0645732,0.1132044,-0.0492467,0.0647671,0.1392965,0.0047818,0.1085
 381,-0.0087671,0.0626316,-0.0265698,0.1051047,-0.0459925,0.0535046\Pol
 ar=49.2835728,3.9533521,92.6267606,-18.2213861,8.955362,63.937634\Pola
 rDeriv=4.6633616,-0.3173865,3.6695216,-1.9129794,2.1130663,-0.4559198,
 2.4019555,-0.2263102,-1.2256168,-0.9582072,-0.7304178,4.2209678,0.9020
 086,0.7311846,-5.8641826,0.2397504,-1.6662013,-4.8115661,-3.5737341,-0
 .6969677,-0.5747477,2.5291212,-3.639079,-4.6548471,-2.2413523,-0.32163
 26,-5.3260613,1.332525,0.2949209,-3.3416379,1.9215116,-3.5342311,1.124
 7379,-3.5264539,1.8332844,6.6375294,-0.6979276,-2.2564381,0.4747617,-1
 .6830273,-1.6206407,2.5460597,-1.7257326,2.5561858,-1.7972943,1.461333
 2,-2.8376443,-4.3279608,-2.5933887,-0.9003038,0.6817889,2.6009959,-2.1
 347181,-3.4081589,-3.5546093,0.6221747,-2.0703984,2.8212622,2.096703,2
 .9229024,2.5635382,-2.3917535,0.571395,-1.0429996,2.4080075,2.9000425,
 -1.0077431,2.7962967,1.7566584,-0.921893,-0.8060321,4.6202178,4.373157
 8,7.5054085,1.0514063,-1.5578466,0.4916441,0.1363085,-0.4684746,2.5429
 253,18.9031634,-1.0391728,-0.3970356,0.4618143,0.1537869,0.19628,-0.54
 58128,2.3858463,7.1298427,-2.6722698,-1.2923154,-0.5173558,-1.8039652,
 1.7435777,-0.4248186,-0.2233949,0.5048866,-0.5715471,-4.1207931,-0.162
 3032,-0.2463532,0.2404061,-0.3481934,0.3152099,1.6842809,-1.8124306,-0
 .0714015,2.5200911,-2.7248801,-2.0556244,-2.1941677,2.3359406,1.679812
 5,-1.5729821,-1.6402071,-2.428387,-4.0683,1.8073402,2.5481879,-2.21362
 77,1.3831032,1.8119647,2.3228525,-2.2871184,-2.4466749,3.5000975,-4.65
 66319,0.435538,2.3673678,-0.5836692,0.5598464,2.3847412,-1.4986499,1.3
 100476,3.6949079,-0.2760461,-0.2825857,-2.7918122,0.0119947,0.0915836,
 -2.3461185,2.9365916,-1.7859252,2.0463916,8.539073,-2.0076056,1.136082
 ,-0.7041212,0.5385729,0.4625954,0.5765327,1.4128967,-0.1705003,0.38683
 66,0.3416632,0.880044,0.0603554,0.1982218,1.0640154,1.964237,0.1285303
 ,0.0227441,-1.159781,0.2604259,-1.2330235,-2.0987101,-0.2786582,-1.490
 6922,1.0351617,-1.0332994,1.0355231,0.5491476,-1.0918733,1.7465508,-0.
 3528912,-0.1138064,-0.1227742,-1.6567065,-0.4975678,-8.2430349,-0.0812
 512,-2.182099,-0.7077611,-0.3282972,-0.045021,-0.7234027,-0.4021677,-0
 .3136562,-11.4772641,0.0173507,-1.8805018,-0.6126138,0.4781265,-0.0070
 934,-0.8603504,-0.4609657,-2.3218065,-0.6724807,1.972415,-0.2025478,0.
 5615566,-2.6208739,0.1626666,2.9078471,-0.1331814,0.7716312,0.9006695,
 -0.146441,-0.7293327,-0.1693753,-1.9505764,0.0993945,-0.4599246,3.2912
 495,-0.5075981,-5.1829278,-1.8068768,1.4124778,-0.6766323,2.0596231,-1
 .6340944,-2.2392154,1.0276909,-1.3071006,3.0801709,-1.9293635,2.602965
 1,3.0072023,1.3419061,-1.6847011,1.564829,-2.7531026,3.1462682,5.64336
 68\HyperPolar=49.1574091,-25.7565618,30.8047795,140.3664713,-2.722054,
 18.3972555,-0.8513264,-22.8095799,-29.6925586,-55.8610745\Quadrupole=-
 1.5536095,-1.1090105,2.66262,-2.1064899,-4.009339,3.7327727\PG=C01 [X(
 C5H6O1S1)]\NImag=0\\0.32744543,0.11548469,0.45145930,-0.32565651,-0.06
 825729,0.52288792,-0.14507000,-0.09975142,0.09614241,0.32403854,-0.112
 55248,-0.25687934,0.10932365,0.08872025,0.70249744,0.09285024,0.091129
 88,-0.16800029,-0.23363931,0.01710635,0.48001027,-0.01454048,-0.018607
 85,0.02598160,-0.11962559,0.02299786,0.08493034,0.31827629,0.00059248,
 0.02242729,0.00309317,-0.00168455,-0.10865446,-0.00902684,0.13133996,0
 .77172220,0.03090218,0.03036650,-0.02903510,0.07862069,-0.04412457,-0.
 18706243,-0.24580479,-0.02015392,0.46602476,-0.00803077,0.00373135,0.0
 2818572,0.00803550,0.01421338,0.00012908,-0.07239494,-0.02315798,0.020
 23881,0.21754097,-0.00103969,-0.02036604,-0.00660062,0.03466286,-0.022
 44586,-0.05645579,-0.03457294,-0.43158917,-0.04765611,-0.03619128,0.69
 162671,0.02696504,-0.01336655,-0.03061516,0.00536711,-0.02739462,-0.00
 908013,0.01731157,-0.06392741,-0.09501119,-0.19391617,0.20640971,0.416
 41453,-0.03140297,0.02135526,0.01305773,-0.00405641,-0.00607179,0.0076
 1304,-0.00572182,-0.02609347,0.01389011,-0.05976464,-0.03140943,0.0348
 3157,0.09741224,-0.00014683,-0.10738188,-0.02063790,-0.01768442,-0.050
 82981,0.01149748,-0.01367819,-0.04777301,0.00495683,-0.01143006,-0.051
 79013,0.01055196,0.03901573,0.26040959,0.00754349,-0.05118522,-0.04991
 690,0.00463903,-0.00502413,-0.00548991,0.01706955,0.02260163,-0.009699
 86,0.03994057,0.03893780,-0.07640136,-0.07826464,0.00224861,0.14712755
 ,0.00695219,-0.01974117,-0.00179675,-0.05877871,0.00317841,0.03009188,
 0.00394444,0.02376348,0.00409472,-0.00219100,-0.00096442,0.00380385,0.
 00403553,-0.00067088,0.00343095,0.15598482,-0.00408916,-0.03624877,-0.
 00584361,-0.02454528,-0.26007814,-0.02193931,0.00321807,-0.02189974,-0
 .01081963,-0.00141943,-0.00036145,0.00175605,-0.00022214,-0.00817858,-
 0.00345898,-0.01877213,0.41555791,0.00220554,0.01638367,0.01030537,0.0
 2300521,-0.06129077,-0.08654338,-0.00116517,-0.04003113,-0.00604525,0.
 00368611,0.00111013,-0.00429822,0.00354591,-0.00282532,0.00081045,-0.1
 3266219,0.11614350,0.28420430,-0.00002175,0.00051777,0.00276386,-0.004
 12813,-0.01119988,0.00480697,-0.11908356,-0.09788698,0.09864830,0.0037
 8378,0.00124618,0.00120488,0.00512535,0.00064383,0.00247345,-0.0002895
 6,0.00016796,-0.00146356,0.11715086,0.00128076,-0.00210917,-0.00282838
 ,0.00777532,0.00933659,-0.00898675,-0.09933739,-0.17304852,0.10514745,
 -0.01544355,-0.01202387,0.01775067,-0.00164281,-0.00245295,-0.00002293
 ,-0.00049972,0.00117726,0.00135704,0.10665241,0.17777217,0.00295868,-0
 .00174330,-0.00282458,0.00966405,0.01799050,-0.00786158,0.09828818,0.1
 0309972,-0.14543558,-0.00307591,-0.00598850,0.00724533,0.00188515,-0.0
 0327804,0.00322517,-0.00163417,0.00040519,0.00107785,-0.10628907,-0.11
 206449,0.14563110,0.00094048,-0.00212077,-0.00255316,-0.00325378,0.003
 72706,0.00153941,0.00125292,-0.00195335,-0.00000003,0.00065653,-0.0008
 8441,0.00061674,0.00003580,-0.00236973,-0.00083662,-0.09447445,0.02402
 080,0.06045788,-0.00013228,0.00003585,-0.00023990,0.52353590,0.0014583
 3,0.00021852,-0.00189072,0.02366829,-0.02937395,-0.04042333,-0.0026173
 7,-0.00287614,0.00257464,0.00066920,-0.00070670,-0.00145317,0.00043147
 ,0.00225274,-0.00000442,-0.00078309,-0.08488057,-0.00620959,0.00027103
 ,0.00009469,-0.00028201,0.03254667,0.60558863,-0.00163527,0.00318795,0
 .00266903,0.00663969,-0.01209504,-0.01537417,-0.00017048,0.00162767,0.
 00226181,0.00101490,0.00075424,0.00000157,-0.00011807,0.00397579,0.001
 06167,0.05411880,-0.04144688,-0.14374151,-0.00017980,0.00005194,-0.000
 03838,0.06122083,-0.03486850,0.46500184,-0.00005351,0.00032454,0.00019
 145,0.00028179,-0.00440347,-0.00155508,0.00008531,0.00060812,0.0003129
 0,0.00018913,-0.00020262,-0.00007852,0.00009239,0.00084670,0.00005969,
 -0.01813017,0.00253210,0.01197914,-0.00000907,-0.00006254,-0.00018229,
 -0.28268235,-0.05051596,-0.03582022,0.31341522,-0.00092334,-0.00010265
 ,0.00070939,0.00223794,0.00404639,0.00071016,0.00003404,-0.00048145,-0
 .00052254,-0.00000640,0.00054495,0.00002286,-0.00042688,-0.00011881,-0
 .00001390,0.01380796,0.00083515,-0.00324088,-0.00002069,0.00000717,0.0
 0008568,-0.05361434,-0.06579873,-0.00613375,0.05481439,0.06265078,-0.0
 0137362,-0.00062945,0.00076137,0.00105384,0.00554194,0.00188131,-0.000
 05506,-0.00046374,-0.00069112,-0.00012514,0.00021386,-0.00010248,-0.00
 007150,-0.00032910,-0.00012048,0.03781024,-0.00113172,-0.00835797,0.00
 002890,0.00003661,0.00017276,-0.03959711,-0.00754570,-0.05566839,0.029
 94969,0.00946134,0.06219904,0.00032503,0.00058944,-0.00111414,0.000505
 86,-0.00297722,-0.00035776,-0.00036429,0.00019720,0.00013786,-0.000132
 75,0.00002808,-0.00000825,-0.00005957,0.00001281,0.00009196,0.00514399
 ,-0.00515934,0.02515351,0.00008205,-0.00003267,-0.00000488,-0.08875915
 ,0.04311045,-0.07984579,-0.01037401,0.01537833,-0.02704323,0.09110327,
 -0.00046676,-0.00024702,0.00131325,-0.00042688,0.00426191,-0.00135354,
 0.00039154,-0.00045687,-0.00029622,0.00012718,0.00048940,0.00006349,0.
 00014891,-0.00006708,0.00036585,-0.00287744,0.00447742,-0.01441360,-0.
 00005752,0.00000542,0.00003942,0.04226661,-0.10633568,0.09399463,-0.00
 431921,0.00375422,-0.00603040,-0.04742338,0.10681766,-0.00013864,-0.00
 061819,0.00052343,-0.00061166,0.00687289,0.00144312,0.00040819,-0.0008
 9322,-0.00026559,0.00011389,0.00029252,0.00027468,-0.00006845,-0.00093
 579,-0.00001987,0.00279159,0.00273670,-0.03528468,-0.00021163,0.000112
 53,0.00008377,-0.07707084,0.08980587,-0.20917595,-0.00230640,0.0033715
 5,-0.00119627,0.07828947,-0.09952253,0.24047292,-0.00001200,-0.0004510
 2,0.00038400,-0.00154704,0.00065034,0.00314271,0.00047270,0.00077289,0
 .00001039,-0.00012788,-0.00001983,0.00015166,0.00013313,0.00022658,0.0
 0006265,-0.00067296,0.02343196,0.00703373,-0.00001269,-0.00001578,0.00
 003145,-0.05704569,-0.04853088,-0.00551196,-0.00284418,-0.03217707,-0.
 00099424,0.00272191,0.01338847,-0.00039457,0.05906756,-0.00007168,0.00
 030498,0.00009294,0.00079788,0.00268415,-0.00058839,-0.00019390,-0.000
 47961,0.00006553,0.00019266,-0.00013878,-0.00030479,0.00002951,-0.0001
 0055,-0.00010262,0.00104836,-0.01093543,-0.00430186,0.00003189,-0.0000
 1238,-0.00005173,-0.04088236,-0.31700378,-0.00982580,-0.00006867,-0.00
 444344,0.00108054,-0.00356409,-0.01221782,-0.00078250,0.04251244,0.342
 22239,0.00048107,0.00063239,-0.00018268,0.00317817,-0.00037432,-0.0040
 6837,-0.00023633,-0.00130824,0.00034312,0.00020592,-0.00000262,-0.0003
 1115,0.00001207,-0.00038261,0.00002122,0.00129775,-0.03610156,-0.01104
 097,0.00004360,0.00001610,-0.00004567,-0.00355270,0.00103390,-0.046860
 75,-0.00198133,-0.00489480,0.00106671,0.00447891,0.02672578,0.00327823
 ,-0.00339659,0.01478925,0.05761651,-0.13473546,0.00083666,0.16337815,-
 0.00144692,0.00575141,0.00740794,0.00297121,-0.00234722,0.00315255,-0.
 00053211,-0.00050140,-0.00152626,-0.00085648,-0.00211670,-0.00209593,-
 0.00199134,0.00073379,-0.00176851,0.00021885,0.00018003,0.00068772,-0.
 00011388,0.00034216,0.00032179,0.00007876,0.00090698,0.00038261,-0.000
 17779,-0.00075920,-0.00072233,-0.00010071,0.00015927,-0.00047073,0.135
 12058,0.00297372,-0.04889687,-0.01164327,-0.01148246,0.00966442,0.0181
 0034,-0.00250806,-0.00319643,0.00130470,0.00063735,-0.00602164,-0.0020
 6155,0.01220248,-0.00073521,-0.01703564,0.00158908,0.00070927,-0.00121
 352,-0.00059442,0.00062393,0.00083285,-0.00060701,-0.00087413,0.000627
 51,0.00036836,-0.00088538,-0.00019319,-0.00014276,-0.00048605,-0.00038
 674,0.00010980,0.00016040,0.00000265,-0.00300256,0.04874186,0.16394944
 ,-0.00859620,-0.25523849,0.00296661,-0.00640771,-0.00314016,0.00311189
 ,0.00106748,0.00146122,-0.00123083,-0.00043482,0.00012312,0.00156898,0
 .00332178,-0.00333098,-0.00154901,0.00000510,-0.00116334,0.00048909,-0
 .00026724,-0.00009286,0.00007981,-0.00072399,-0.00024933,-0.00052024,0
 .00043329,0.00005592,0.00020086,-0.00090251,-0.00008609,-0.00048345,-0
 .00006727,0.00020951,-0.16974700,0.01259675,0.26081028,-0.00179620,-0.
 00216748,0.00103562,0.00504489,-0.00203387,0.00304052,0.00472781,-0.00
 415059,-0.00420368,-0.08703182,0.06984890,0.10527678,-0.00497254,0.007
 35116,0.00588585,0.00046722,0.00010281,-0.00000760,-0.00268387,0.00111
 008,-0.00208898,0.00003994,-0.00005030,-0.00003442,-0.00004932,-0.0000
 1090,0.00003460,-0.00001456,0.00000767,-0.00007862,-0.00003216,0.00000
 868,-0.00005981,0.00156528,0.00045647,0.00116383,0.08473533,-0.0025000
 6,-0.00217836,0.00316940,-0.00228754,-0.00422933,0.00022972,0.01353421
 ,-0.00369407,-0.02084266,0.06807758,-0.14721740,-0.12804664,-0.0073168
 1,0.00676570,0.01269395,0.00092156,-0.00017434,-0.00146766,0.00022843,
 0.00062967,0.00095471,-0.00016503,-0.00030490,0.00015023,0.00007827,-0
 .00000820,-0.00001099,-0.00001685,0.00000449,-0.00005307,0.00010211,-0
 .00004014,-0.00013591,-0.00018322,0.00119583,-0.00002466,-0.07047266,0
 .14925105,0.00094836,0.00269582,-0.00133391,0.00297416,-0.00012419,0.0
 0328571,0.00033050,0.00431485,0.00315520,0.10483306,-0.13057981,-0.208
 23955,0.00211810,-0.00816369,-0.00726670,0.00020234,-0.00030485,0.0000
 7734,-0.00231501,-0.00030254,-0.00113734,-0.00006432,-0.00001300,0.000
 11256,-0.00004878,0.00001160,-0.00000042,0.00002148,0.00001639,-0.0000
 4770,-0.00003579,-0.00000329,-0.00002569,0.00099999,-0.00093090,0.0006
 4119,-0.10996408,0.13338360,0.21077931\\0.00003041,-0.00003086,0.00000
 336,-0.00004735,0.00010763,0.00002346,-0.00000483,-0.00001948,-0.00002
 387,-0.00000707,0.00001318,0.00000012,0.00000492,0.00000062,-0.0000123
 1,-0.00000101,-0.00006622,0.00000462,0.00001005,-0.00001614,0.00000102
 ,-0.00002241,0.00004439,-0.00001330,0.00003415,-0.00000237,0.00000049,
 0.00000121,-0.00000624,0.00001523,-0.00000304,-0.00002438,-0.00000054,
 -0.00000105,0.00000833,-0.00000863,0.00000600,-0.00000847,0.00001036\\
 \@


 NOBODY LOSES ALL THE TIME
 I HAD AN UNCLE NAMED
 SOL WHO WAS A BORN FAILURE AND
 NEARLY EVERYBODY SAID HE SHOULD HAVE GONE
 INTO VAUDEVILLE PERHAPS BECAUSE MY UNCLE SOL COULD
 SING MCCANN HE WAS A DIVER ON XMAS EVE LIKE HELL ITSELF WHICH
 MAY OR MAY NOT ACCOUNT FOR THE FACT THAT MY UNCLE
 SOL INDULGED IN THAT POSSIBLY MOST INEXCUSABLE
 OF ALL TO USE A HIGHFALOOTIN PHRASE
 LUXURIES THAT IS OR TO
 WIT FARMING AND BE
 IT NEEDLESSLY
 ADDED
 MY UNCLE SOL'S FARM     
 FAILED BECAUSE THE CHICKENS
 ATE THE VEGETABLES SO
 MY UNCLE SOL HAD A
 CHICKEN FARM TILL THE
 SKUNKS ATE THE CHICKENS WHEN 
 MY UNCLE SOL
 HAD A SKUNK FARM BUT
 THE SKUNKS CAUGHT COLD AND
 DIED AND SO
 MY UNCLE SOL IMITATED THE
 SKUNKS IN A SUBTLE MANNER
 OR BY DROWNING HIMSELF IN THE WATERTANK
 BUT SOMEBODY WHO'D GIVEN MY UNCLE SOL A VICTOR     
 VICTROLA AND RECORDS WHILE HE LIVED PRESENTED TO
 HIM UPON THE AUSPICIOUS OCCASION OF HIS DECEASE A
 SCRUMPTIOUS NOT TO MENTION SPLENDIFEROUS FUNERAL WITH
 TALL BOYS IN BLACK GLOVES AND FLOWERS AND EVERYTHING AND
 I REMEMBER WE ALL CRIED LIKE THE MISSOURI
 WHEN MY UNCLE SOL'S COFFIN LURCHED BECAUSE     
 SOMEBODY PRESSED A BUTTON
 (AND DOWN WENT
 MY UNCLE
 SOL
 AND STARTED A WORM FARM)
           E. E. CUMMINGS
 Job cpu time:       0 days  0 hours  5 minutes 38.4 seconds.
 Elapsed time:       0 days  0 hours  1 minutes 25.0 seconds.
 File lengths (MBytes):  RWF=     29 Int=      0 D2E=      0 Chk=      2 Scr=      1
 Normal termination of Gaussian 16 at Thu Jan  9 10:06:25 2020.
