 Entering Gaussian System, Link 0=g16
 Input=O3G_1m_0sc_Sn_opt.gjf
 Output=O3G_1m_0sc_Sn_opt.log
 Initial command:
 /apps/gaussian/g16-a03/l1.exe "/tmp/pbs.966797.pbs/Gau-13413.inp" -scrdir="/tmp/pbs.966797.pbs/"
 Entering Link 1 = /apps/gaussian/g16-a03/l1.exe PID=     13414.
  
 Copyright (c) 1988,1990,1992,1993,1995,1998,2003,2009,2016,
            Gaussian, Inc.  All Rights Reserved.
  
 This is part of the Gaussian(R) 16 program.  It is based on
 the Gaussian(R) 09 system (copyright 2009, Gaussian, Inc.),
 the Gaussian(R) 03 system (copyright 2003, Gaussian, Inc.),
 the Gaussian(R) 98 system (copyright 1998, Gaussian, Inc.),
 the Gaussian(R) 94 system (copyright 1995, Gaussian, Inc.),
 the Gaussian 92(TM) system (copyright 1992, Gaussian, Inc.),
 the Gaussian 90(TM) system (copyright 1990, Gaussian, Inc.),
 the Gaussian 88(TM) system (copyright 1988, Gaussian, Inc.),
 the Gaussian 86(TM) system (copyright 1986, Carnegie Mellon
 University), and the Gaussian 82(TM) system (copyright 1983,
 Carnegie Mellon University). Gaussian is a federally registered
 trademark of Gaussian, Inc.
  
 This software contains proprietary and confidential information,
 including trade secrets, belonging to Gaussian, Inc.
  
 This software is provided under written license and may be
 used, copied, transmitted, or stored only in accord with that
 written license.
  
 The following legend is applicable only to US Government
 contracts under FAR:
  
                    RESTRICTED RIGHTS LEGEND
  
 Use, reproduction and disclosure by the US Government is
 subject to restrictions as set forth in subparagraphs (a)
 and (c) of the Commercial Computer Software - Restricted
 Rights clause in FAR 52.227-19.
  
 Gaussian, Inc.
 340 Quinnipiac St., Bldg. 40, Wallingford CT 06492
  
  
 ---------------------------------------------------------------
 Warning -- This program may not be used in any manner that
 competes with the business of Gaussian, Inc. or will provide
 assistance to any competitor of Gaussian, Inc.  The licensee
 of this program is prohibited from giving any competitor of
 Gaussian, Inc. access to this program.  By using this program,
 the user acknowledges that Gaussian, Inc. is engaged in the
 business of creating and licensing software in the field of
 computational chemistry and represents and warrants to the
 licensee that it is not a competitor of Gaussian, Inc. and that
 it will not use this program in any manner prohibited above.
 ---------------------------------------------------------------
  

 Cite this work as:
 Gaussian 16, Revision A.03,
 M. J. Frisch, G. W. Trucks, H. B. Schlegel, G. E. Scuseria, 
 M. A. Robb, J. R. Cheeseman, G. Scalmani, V. Barone, 
 G. A. Petersson, H. Nakatsuji, X. Li, M. Caricato, A. V. Marenich, 
 J. Bloino, B. G. Janesko, R. Gomperts, B. Mennucci, H. P. Hratchian, 
 J. V. Ortiz, A. F. Izmaylov, J. L. Sonnenberg, D. Williams-Young, 
 F. Ding, F. Lipparini, F. Egidi, J. Goings, B. Peng, A. Petrone, 
 T. Henderson, D. Ranasinghe, V. G. Zakrzewski, J. Gao, N. Rega, 
 G. Zheng, W. Liang, M. Hada, M. Ehara, K. Toyota, R. Fukuda, 
 J. Hasegawa, M. Ishida, T. Nakajima, Y. Honda, O. Kitao, H. Nakai, 
 T. Vreven, K. Throssell, J. A. Montgomery, Jr., J. E. Peralta, 
 F. Ogliaro, M. J. Bearpark, J. J. Heyd, E. N. Brothers, K. N. Kudin, 
 V. N. Staroverov, T. A. Keith, R. Kobayashi, J. Normand, 
 K. Raghavachari, A. P. Rendell, J. C. Burant, S. S. Iyengar, 
 J. Tomasi, M. Cossi, J. M. Millam, M. Klene, C. Adamo, R. Cammi, 
 J. W. Ochterski, R. L. Martin, K. Morokuma, O. Farkas, 
 J. B. Foresman, and D. J. Fox, Gaussian, Inc., Wallingford CT, 2016.
 
 ******************************************
 Gaussian 16:  ES64L-G16RevA.03 25-Dec-2016
                16-Jan-2020 
 ******************************************
 %mem=50GB
 %nprocshared=16
 Will use up to   16 processors via shared memory.
 --------------------
 #p opt b3lyp/lanl2dz
 --------------------
 1/18=20,19=15,26=3,38=1/1,3;
 2/9=110,12=2,17=6,18=5,40=1/2;
 3/5=6,6=3,11=2,25=1,30=1,71=1,74=-5/1,2,3;
 4//1;
 5/5=2,38=5/2;
 6/7=2,8=2,9=2,10=2,28=1/1;
 7//1,2,3,16;
 1/18=20,19=15,26=3/3(2);
 2/9=110/2;
 99//99;
 2/9=110/2;
 3/5=6,6=3,11=2,25=1,30=1,71=1,74=-5/1,2,3;
 4/5=5,16=3,69=1/1;
 5/5=2,38=5/2;
 7//1,2,3,16;
 1/18=20,19=15,26=3/3(-5);
 2/9=110/2;
 6/7=2,8=2,9=2,10=2,19=2,28=1/1;
 99/9=1/99;
 Leave Link    1 at Thu Jan 16 14:08:05 2020, MaxMem=  6710886400 cpu:               0.4 elap:               0.0
 (Enter /apps/gaussian/g16-a03/l101.exe)
 ------------------------
 3G_1m_0sc_Sn_opt_pop.gjf
 ------------------------
 Symbolic Z-matrix:
 Charge =  0 Multiplicity = 1
 C                     0.152     0.706    -0.001 
 C                     1.398     1.313    -0.001 
 C                     1.356     2.736    -0.001 
 C                     0.078     3.212    -0.001 
 S                    -1.096     1.945    -0.001 
 O                     2.523     0.542     0. 
 H                     2.229     3.372     0. 
 C                    -0.152    -0.706    -0.001 
 C                    -1.398    -1.313    -0.001 
 C                    -1.357    -2.736    -0.001 
 C                    -0.078    -3.212    -0.001 
 S                     1.096    -1.946     0. 
 O                    -2.523    -0.542    -0.001 
 H                    -2.229    -3.373    -0.001 
 C                     3.788     1.197     0. 
 H                     3.899     1.826     0.89 
 H                     3.899     1.826    -0.891 
 C                     4.85      0.113     0. 
 H                     4.735    -0.523     0.889 
 H                     4.735    -0.523    -0.889 
 O                     6.104     0.768     0. 
 C                     7.206    -0.122     0. 
 H                     7.189    -0.768     0.889 
 H                     7.189    -0.768    -0.889 
 C                     8.472     0.716     0. 
 H                     8.487     1.363     0.889 
 H                     8.488     1.363    -0.888 
 O                     9.571    -0.174     0. 
 C                     10.827    0.48      0.001 
 H                     10.938    1.117     0.889 
 H                     10.939    1.117    -0.888 
 C                     11.903   -0.591     0.001 
 H                     11.789   -1.229    -0.888 
 H                     11.789   -1.229     0.89 
 O                     13.155    0.064     0.001 
 C                     14.246   -0.833     0.001 
 H                     14.242   -1.476    -0.891 
 H                     15.157   -0.234     0.001 
 H                     14.242   -1.476     0.893 
 C                    -3.788    -1.198    -0.001 
 H                    -3.899    -1.826     0.89 
 H                    -3.899    -1.826    -0.891 
 C                    -4.85     -0.113     0. 
 H                    -4.735     0.522     0.889 
 H                    -4.735     0.522    -0.89 
 O                    -6.104    -0.768     0. 
 C                    -7.206     0.122     0. 
 H                    -7.189     0.769     0.889 
 H                    -7.189     0.768    -0.889 
 C                    -8.472    -0.716     0. 
 H                    -8.488    -1.363     0.889 
 H                    -8.488    -1.363    -0.888 
 O                    -9.571     0.175     0. 
 C                    -10.827   -0.479     0.001 
 H                    -10.938   -1.116     0.89 
 H                    -10.939   -1.116    -0.888 
 C                    -11.902    0.592     0.001 
 H                    -11.789    1.23     -0.888 
 H                    -11.788    1.23      0.89 
 O                    -13.155   -0.063     0.001 
 C                    -14.246    0.834     0.001 
 H                    -14.242    1.477    -0.891 
 H                    -15.157    0.235     0.002 
 H                    -14.241    1.477     0.893 
 Sn                   -0.218     5.331     0. 
 C                     0.505     6.354     1.772 
 H                     1.566     6.475     1.706 
 H                     0.041     7.316     1.843 
 H                     0.265     5.777     2.64 
 C                    -2.388     5.331     0. 
 H                    -2.745     4.829    -0.875 
 H                    -2.745     4.825     0.873 
 H                    -2.745     6.34      0.002 
 C                     0.505     6.354    -1.772 
 H                     0.081     7.336    -1.815 
 H                     1.572     6.428    -1.731 
 H                     0.219     5.804    -2.643 
 Sn                    0.346    -5.31      0. 
 C                     1.735    -6.132    -1.451 
 H                     2.738    -5.967    -1.118 
 H                     1.562    -7.183    -1.554 
 H                     1.589    -5.652    -2.396 
 C                     1.409    -5.902     1.797 
 H                     1.376    -6.967     1.896 
 H                     2.427    -5.581     1.731 
 H                     0.947    -5.45      2.65 
 C                    -1.412    -6.582     0.001 
 H                    -2.008    -6.366     0.862 
 H                    -1.984    -6.4      -0.885 
 H                    -1.109    -7.608     0.025 
 
 ITRead=  0  0  0  0  0  0  0  0  0  0  0  0  0  0  0  0  0  0  0  0
 ITRead=  0  0  0  0  0  0  0  0  0  0  0  0  0  0  0  0  0  0  0  0
 ITRead=  0  0  0  0  0  0  0  0  0  0  0  0  0  0  0  0  0  0  0  0
 ITRead=  0  0  0  0  0  0  0  0  0  0  0  0  0  0  0  0  0  0  0  0
 ITRead=  0  0  0  0  0  0  0  0  0  0
 MicOpt= -1 -1 -1 -1 -1 -1 -1 -1 -1 -1 -1 -1 -1 -1 -1 -1 -1 -1 -1 -1
 MicOpt= -1 -1 -1 -1 -1 -1 -1 -1 -1 -1 -1 -1 -1 -1 -1 -1 -1 -1 -1 -1
 MicOpt= -1 -1 -1 -1 -1 -1 -1 -1 -1 -1 -1 -1 -1 -1 -1 -1 -1 -1 -1 -1
 MicOpt= -1 -1 -1 -1 -1 -1 -1 -1 -1 -1 -1 -1 -1 -1 -1 -1 -1 -1 -1 -1
 MicOpt= -1 -1 -1 -1 -1 -1 -1 -1 -1 -1
 NAtoms=     90 NQM=       90 NQMF=       0 NMMI=      0 NMMIF=      0
                NMic=       0 NMicF=      0.
                    Isotopes and Nuclear Properties:
 (Nuclear quadrupole moments (NQMom) in fm**2, nuclear magnetic moments (NMagM)
  in nuclear magnetons)

  Atom         1           2           3           4           5           6           7           8           9          10
 IAtWgt=          12          12          12          12          32          16           1          12          12          12
 AtmWgt=  12.0000000  12.0000000  12.0000000  12.0000000  31.9720718  15.9949146   1.0078250  12.0000000  12.0000000  12.0000000
 NucSpn=           0           0           0           0           0           0           1           0           0           0
 AtZEff=  -0.0000000  -0.0000000  -0.0000000  -0.0000000  -0.0000000  -0.0000000  -0.0000000  -0.0000000  -0.0000000  -0.0000000
 NQMom=    0.0000000   0.0000000   0.0000000   0.0000000   0.0000000   0.0000000   0.0000000   0.0000000   0.0000000   0.0000000
 NMagM=    0.0000000   0.0000000   0.0000000   0.0000000   0.0000000   0.0000000   2.7928460   0.0000000   0.0000000   0.0000000
 AtZNuc=   6.0000000   6.0000000   6.0000000   6.0000000  16.0000000   8.0000000   1.0000000   6.0000000   6.0000000   6.0000000

  Atom        11          12          13          14          15          16          17          18          19          20
 IAtWgt=          12          32          16           1          12           1           1          12           1           1
 AtmWgt=  12.0000000  31.9720718  15.9949146   1.0078250  12.0000000   1.0078250   1.0078250  12.0000000   1.0078250   1.0078250
 NucSpn=           0           0           0           1           0           1           1           0           1           1
 AtZEff=  -0.0000000  -0.0000000  -0.0000000  -0.0000000  -0.0000000  -0.0000000  -0.0000000  -0.0000000  -0.0000000  -0.0000000
 NQMom=    0.0000000   0.0000000   0.0000000   0.0000000   0.0000000   0.0000000   0.0000000   0.0000000   0.0000000   0.0000000
 NMagM=    0.0000000   0.0000000   0.0000000   2.7928460   0.0000000   2.7928460   2.7928460   0.0000000   2.7928460   2.7928460
 AtZNuc=   6.0000000  16.0000000   8.0000000   1.0000000   6.0000000   1.0000000   1.0000000   6.0000000   1.0000000   1.0000000

  Atom        21          22          23          24          25          26          27          28          29          30
 IAtWgt=          16          12           1           1          12           1           1          16          12           1
 AtmWgt=  15.9949146  12.0000000   1.0078250   1.0078250  12.0000000   1.0078250   1.0078250  15.9949146  12.0000000   1.0078250
 NucSpn=           0           0           1           1           0           1           1           0           0           1
 AtZEff=  -0.0000000  -0.0000000  -0.0000000  -0.0000000  -0.0000000  -0.0000000  -0.0000000  -0.0000000  -0.0000000  -0.0000000
 NQMom=    0.0000000   0.0000000   0.0000000   0.0000000   0.0000000   0.0000000   0.0000000   0.0000000   0.0000000   0.0000000
 NMagM=    0.0000000   0.0000000   2.7928460   2.7928460   0.0000000   2.7928460   2.7928460   0.0000000   0.0000000   2.7928460
 AtZNuc=   8.0000000   6.0000000   1.0000000   1.0000000   6.0000000   1.0000000   1.0000000   8.0000000   6.0000000   1.0000000

  Atom        31          32          33          34          35          36          37          38          39          40
 IAtWgt=           1          12           1           1          16          12           1           1           1          12
 AtmWgt=   1.0078250  12.0000000   1.0078250   1.0078250  15.9949146  12.0000000   1.0078250   1.0078250   1.0078250  12.0000000
 NucSpn=           1           0           1           1           0           0           1           1           1           0
 AtZEff=  -0.0000000  -0.0000000  -0.0000000  -0.0000000  -0.0000000  -0.0000000  -0.0000000  -0.0000000  -0.0000000  -0.0000000
 NQMom=    0.0000000   0.0000000   0.0000000   0.0000000   0.0000000   0.0000000   0.0000000   0.0000000   0.0000000   0.0000000
 NMagM=    2.7928460   0.0000000   2.7928460   2.7928460   0.0000000   0.0000000   2.7928460   2.7928460   2.7928460   0.0000000
 AtZNuc=   1.0000000   6.0000000   1.0000000   1.0000000   8.0000000   6.0000000   1.0000000   1.0000000   1.0000000   6.0000000

  Atom        41          42          43          44          45          46          47          48          49          50
 IAtWgt=           1           1          12           1           1          16          12           1           1          12
 AtmWgt=   1.0078250   1.0078250  12.0000000   1.0078250   1.0078250  15.9949146  12.0000000   1.0078250   1.0078250  12.0000000
 NucSpn=           1           1           0           1           1           0           0           1           1           0
 AtZEff=  -0.0000000  -0.0000000  -0.0000000  -0.0000000  -0.0000000  -0.0000000  -0.0000000  -0.0000000  -0.0000000  -0.0000000
 NQMom=    0.0000000   0.0000000   0.0000000   0.0000000   0.0000000   0.0000000   0.0000000   0.0000000   0.0000000   0.0000000
 NMagM=    2.7928460   2.7928460   0.0000000   2.7928460   2.7928460   0.0000000   0.0000000   2.7928460   2.7928460   0.0000000
 AtZNuc=   1.0000000   1.0000000   6.0000000   1.0000000   1.0000000   8.0000000   6.0000000   1.0000000   1.0000000   6.0000000

  Atom        51          52          53          54          55          56          57          58          59          60
 IAtWgt=           1           1          16          12           1           1          12           1           1          16
 AtmWgt=   1.0078250   1.0078250  15.9949146  12.0000000   1.0078250   1.0078250  12.0000000   1.0078250   1.0078250  15.9949146
 NucSpn=           1           1           0           0           1           1           0           1           1           0
 AtZEff=  -0.0000000  -0.0000000  -0.0000000  -0.0000000  -0.0000000  -0.0000000  -0.0000000  -0.0000000  -0.0000000  -0.0000000
 NQMom=    0.0000000   0.0000000   0.0000000   0.0000000   0.0000000   0.0000000   0.0000000   0.0000000   0.0000000   0.0000000
 NMagM=    2.7928460   2.7928460   0.0000000   0.0000000   2.7928460   2.7928460   0.0000000   2.7928460   2.7928460   0.0000000
 AtZNuc=   1.0000000   1.0000000   8.0000000   6.0000000   1.0000000   1.0000000   6.0000000   1.0000000   1.0000000   8.0000000

  Atom        61          62          63          64          65          66          67          68          69          70
 IAtWgt=          12           1           1           1         118          12           1           1           1          12
 AtmWgt=  12.0000000   1.0078250   1.0078250   1.0078250 117.9018000  12.0000000   1.0078250   1.0078250   1.0078250  12.0000000
 NucSpn=           0           1           1           1           0           0           1           1           1           0
 AtZEff=  -0.0000000  -0.0000000  -0.0000000  -0.0000000  -0.0000000  -0.0000000  -0.0000000  -0.0000000  -0.0000000  -0.0000000
 NQMom=    0.0000000   0.0000000   0.0000000   0.0000000   0.0000000   0.0000000   0.0000000   0.0000000   0.0000000   0.0000000
 NMagM=    0.0000000   2.7928460   2.7928460   2.7928460   0.0000000   0.0000000   2.7928460   2.7928460   2.7928460   0.0000000
 AtZNuc=   6.0000000   1.0000000   1.0000000   1.0000000  50.0000000   6.0000000   1.0000000   1.0000000   1.0000000   6.0000000

  Atom        71          72          73          74          75          76          77          78          79          80
 IAtWgt=           1           1           1          12           1           1           1         118          12           1
 AtmWgt=   1.0078250   1.0078250   1.0078250  12.0000000   1.0078250   1.0078250   1.0078250 117.9018000  12.0000000   1.0078250
 NucSpn=           1           1           1           0           1           1           1           0           0           1
 AtZEff=  -0.0000000  -0.0000000  -0.0000000  -0.0000000  -0.0000000  -0.0000000  -0.0000000  -0.0000000  -0.0000000  -0.0000000
 NQMom=    0.0000000   0.0000000   0.0000000   0.0000000   0.0000000   0.0000000   0.0000000   0.0000000   0.0000000   0.0000000
 NMagM=    2.7928460   2.7928460   2.7928460   0.0000000   2.7928460   2.7928460   2.7928460   0.0000000   0.0000000   2.7928460
 AtZNuc=   1.0000000   1.0000000   1.0000000   6.0000000   1.0000000   1.0000000   1.0000000  50.0000000   6.0000000   1.0000000

  Atom        81          82          83          84          85          86          87          88          89          90
 IAtWgt=           1           1          12           1           1           1          12           1           1           1
 AtmWgt=   1.0078250   1.0078250  12.0000000   1.0078250   1.0078250   1.0078250  12.0000000   1.0078250   1.0078250   1.0078250
 NucSpn=           1           1           0           1           1           1           0           1           1           1
 AtZEff=  -0.0000000  -0.0000000  -0.0000000  -0.0000000  -0.0000000  -0.0000000  -0.0000000  -0.0000000  -0.0000000  -0.0000000
 NQMom=    0.0000000   0.0000000   0.0000000   0.0000000   0.0000000   0.0000000   0.0000000   0.0000000   0.0000000   0.0000000
 NMagM=    2.7928460   2.7928460   0.0000000   2.7928460   2.7928460   2.7928460   0.0000000   2.7928460   2.7928460   2.7928460
 AtZNuc=   1.0000000   1.0000000   6.0000000   1.0000000   1.0000000   1.0000000   6.0000000   1.0000000   1.0000000   1.0000000
 Leave Link  101 at Thu Jan 16 14:08:06 2020, MaxMem=  6710886400 cpu:               8.1 elap:               0.5
 (Enter /apps/gaussian/g16-a03/l103.exe)

 GradGradGradGradGradGradGradGradGradGradGradGradGradGradGradGradGradGrad
 Berny optimization.
 Initialization pass.
                           ----------------------------
                           !    Initial Parameters    !
                           ! (Angstroms and Degrees)  !
 --------------------------                            --------------------------
 ! Name  Definition              Value          Derivative Info.                !
 --------------------------------------------------------------------------------
 ! R1    R(1,2)                  1.386          estimate D2E/DX2                !
 ! R2    R(1,5)                  1.7586         estimate D2E/DX2                !
 ! R3    R(1,8)                  1.4444         estimate D2E/DX2                !
 ! R4    R(2,3)                  1.4236         estimate D2E/DX2                !
 ! R5    R(2,6)                  1.3638         estimate D2E/DX2                !
 ! R6    R(3,4)                  1.3638         estimate D2E/DX2                !
 ! R7    R(3,7)                  1.0801         estimate D2E/DX2                !
 ! R8    R(4,5)                  1.7273         estimate D2E/DX2                !
 ! R9    R(4,65)                 2.1396         estimate D2E/DX2                !
 ! R10   R(6,15)                 1.4245         estimate D2E/DX2                !
 ! R11   R(8,9)                  1.386          estimate D2E/DX2                !
 ! R12   R(8,12)                 1.7593         estimate D2E/DX2                !
 ! R13   R(9,10)                 1.4236         estimate D2E/DX2                !
 ! R14   R(9,13)                 1.3638         estimate D2E/DX2                !
 ! R15   R(10,11)                1.3647         estimate D2E/DX2                !
 ! R16   R(10,14)                1.0799         estimate D2E/DX2                !
 ! R17   R(11,12)                1.7266         estimate D2E/DX2                !
 ! R18   R(11,78)                2.1404         estimate D2E/DX2                !
 ! R19   R(13,40)                1.425          estimate D2E/DX2                !
 ! R20   R(15,16)                1.0955         estimate D2E/DX2                !
 ! R21   R(15,17)                1.0963         estimate D2E/DX2                !
 ! R22   R(15,18)                1.5175         estimate D2E/DX2                !
 ! R23   R(18,19)                1.0991         estimate D2E/DX2                !
 ! R24   R(18,20)                1.0991         estimate D2E/DX2                !
 ! R25   R(18,21)                1.4148         estimate D2E/DX2                !
 ! R26   R(21,22)                1.4165         estimate D2E/DX2                !
 ! R27   R(22,23)                1.0991         estimate D2E/DX2                !
 ! R28   R(22,24)                1.0991         estimate D2E/DX2                !
 ! R29   R(22,25)                1.5182         estimate D2E/DX2                !
 ! R30   R(25,26)                1.0996         estimate D2E/DX2                !
 ! R31   R(25,27)                1.0988         estimate D2E/DX2                !
 ! R32   R(25,28)                1.4142         estimate D2E/DX2                !
 ! R33   R(28,29)                1.4161         estimate D2E/DX2                !
 ! R34   R(29,30)                1.0985         estimate D2E/DX2                !
 ! R35   R(29,31)                1.0994         estimate D2E/DX2                !
 ! R36   R(29,32)                1.5182         estimate D2E/DX2                !
 ! R37   R(32,33)                1.1002         estimate D2E/DX2                !
 ! R38   R(32,34)                1.1002         estimate D2E/DX2                !
 ! R39   R(32,35)                1.413          estimate D2E/DX2                !
 ! R40   R(35,36)                1.4124         estimate D2E/DX2                !
 ! R41   R(36,37)                1.0996         estimate D2E/DX2                !
 ! R42   R(36,38)                1.0903         estimate D2E/DX2                !
 ! R43   R(36,39)                1.0996         estimate D2E/DX2                !
 ! R44   R(40,41)                1.0957         estimate D2E/DX2                !
 ! R45   R(40,42)                1.0949         estimate D2E/DX2                !
 ! R46   R(40,43)                1.5182         estimate D2E/DX2                !
 ! R47   R(43,44)                1.0985         estimate D2E/DX2                !
 ! R48   R(43,45)                1.0993         estimate D2E/DX2                !
 ! R49   R(43,46)                1.4148         estimate D2E/DX2                !
 ! R50   R(46,47)                1.4165         estimate D2E/DX2                !
 ! R51   R(47,48)                1.0996         estimate D2E/DX2                !
 ! R52   R(47,49)                1.0991         estimate D2E/DX2                !
 ! R53   R(47,50)                1.5182         estimate D2E/DX2                !
 ! R54   R(50,51)                1.0996         estimate D2E/DX2                !
 ! R55   R(50,52)                1.0988         estimate D2E/DX2                !
 ! R56   R(50,53)                1.4148         estimate D2E/DX2                !
 ! R57   R(53,54)                1.4161         estimate D2E/DX2                !
 ! R58   R(54,55)                1.0993         estimate D2E/DX2                !
 ! R59   R(54,56)                1.0994         estimate D2E/DX2                !
 ! R60   R(54,57)                1.5175         estimate D2E/DX2                !
 ! R61   R(57,58)                1.1001         estimate D2E/DX2                !
 ! R62   R(57,59)                1.1002         estimate D2E/DX2                !
 ! R63   R(57,60)                1.4139         estimate D2E/DX2                !
 ! R64   R(60,61)                1.4124         estimate D2E/DX2                !
 ! R65   R(61,62)                1.0996         estimate D2E/DX2                !
 ! R66   R(61,63)                1.0903         estimate D2E/DX2                !
 ! R67   R(61,64)                1.0996         estimate D2E/DX2                !
 ! R68   R(65,66)                2.1701         estimate D2E/DX2                !
 ! R69   R(65,70)                2.17           estimate D2E/DX2                !
 ! R70   R(65,74)                2.1701         estimate D2E/DX2                !
 ! R71   R(66,67)                1.0699         estimate D2E/DX2                !
 ! R72   R(66,68)                1.0704         estimate D2E/DX2                !
 ! R73   R(66,69)                1.0696         estimate D2E/DX2                !
 ! R74   R(70,71)                1.0701         estimate D2E/DX2                !
 ! R75   R(70,72)                1.0703         estimate D2E/DX2                !
 ! R76   R(70,73)                1.0703         estimate D2E/DX2                !
 ! R77   R(74,75)                1.0705         estimate D2E/DX2                !
 ! R78   R(74,76)                1.0703         estimate D2E/DX2                !
 ! R79   R(74,77)                1.0691         estimate D2E/DX2                !
 ! R80   R(78,79)                2.1703         estimate D2E/DX2                !
 ! R81   R(78,83)                2.1702         estimate D2E/DX2                !
 ! R82   R(78,87)                2.1699         estimate D2E/DX2                !
 ! R83   R(79,80)                1.0696         estimate D2E/DX2                !
 ! R84   R(79,81)                1.0701         estimate D2E/DX2                !
 ! R85   R(79,82)                1.0699         estimate D2E/DX2                !
 ! R86   R(83,84)                1.0701         estimate D2E/DX2                !
 ! R87   R(83,85)                1.0694         estimate D2E/DX2                !
 ! R88   R(83,86)                1.0702         estimate D2E/DX2                !
 ! R89   R(87,88)                1.0692         estimate D2E/DX2                !
 ! R90   R(87,89)                1.0702         estimate D2E/DX2                !
 ! R91   R(87,90)                1.0701         estimate D2E/DX2                !
 ! A1    A(2,1,5)              109.2339         estimate D2E/DX2                !
 ! A2    A(2,1,8)              128.1236         estimate D2E/DX2                !
 ! A3    A(5,1,8)              122.6425         estimate D2E/DX2                !
 ! A4    A(1,2,3)              114.2828         estimate D2E/DX2                !
 ! A5    A(1,2,6)              119.6024         estimate D2E/DX2                !
 ! A6    A(3,2,6)              126.1147         estimate D2E/DX2                !
 ! A7    A(2,3,4)              112.1188         estimate D2E/DX2                !
 ! A8    A(2,3,7)              124.3836         estimate D2E/DX2                !
 ! A9    A(4,3,7)              123.4976         estimate D2E/DX2                !
 ! A10   A(3,4,5)              112.3899         estimate D2E/DX2                !
 ! A11   A(3,4,65)             118.3803         estimate D2E/DX2                !
 ! A12   A(5,4,65)             129.2298         estimate D2E/DX2                !
 ! A13   A(1,5,4)               91.9745         estimate D2E/DX2                !
 ! A14   A(2,6,15)             118.2013         estimate D2E/DX2                !
 ! A15   A(1,8,9)              128.1236         estimate D2E/DX2                !
 ! A16   A(1,8,12)             122.6656         estimate D2E/DX2                !
 ! A17   A(9,8,12)             109.2108         estimate D2E/DX2                !
 ! A18   A(8,9,10)             114.3231         estimate D2E/DX2                !
 ! A19   A(8,9,13)             119.6024         estimate D2E/DX2                !
 ! A20   A(10,9,13)            126.0745         estimate D2E/DX2                !
 ! A21   A(9,10,11)            112.0639         estimate D2E/DX2                !
 ! A22   A(9,10,14)            124.4979         estimate D2E/DX2                !
 ! A23   A(11,10,14)           123.4382         estimate D2E/DX2                !
 ! A24   A(10,11,12)           112.4271         estimate D2E/DX2                !
 ! A25   A(10,11,78)           121.839          estimate D2E/DX2                !
 ! A26   A(12,11,78)           125.7339         estimate D2E/DX2                !
 ! A27   A(8,12,11)             91.9751         estimate D2E/DX2                !
 ! A28   A(9,13,40)            118.1656         estimate D2E/DX2                !
 ! A29   A(6,15,16)            110.7316         estimate D2E/DX2                !
 ! A30   A(6,15,17)            110.7155         estimate D2E/DX2                !
 ! A31   A(6,15,18)            107.0381         estimate D2E/DX2                !
 ! A32   A(16,15,17)           108.6994         estimate D2E/DX2                !
 ! A33   A(16,15,18)           109.8304         estimate D2E/DX2                !
 ! A34   A(17,15,18)           109.8151         estimate D2E/DX2                !
 ! A35   A(15,18,19)           109.8841         estimate D2E/DX2                !
 ! A36   A(15,18,20)           109.8841         estimate D2E/DX2                !
 ! A37   A(15,18,21)           106.8333         estimate D2E/DX2                !
 ! A38   A(19,18,20)           107.9648         estimate D2E/DX2                !
 ! A39   A(19,18,21)           111.1397         estimate D2E/DX2                !
 ! A40   A(20,18,21)           111.1397         estimate D2E/DX2                !
 ! A41   A(18,21,22)           113.4955         estimate D2E/DX2                !
 ! A42   A(21,22,23)           110.9326         estimate D2E/DX2                !
 ! A43   A(21,22,24)           110.9326         estimate D2E/DX2                !
 ! A44   A(21,22,25)           107.5732         estimate D2E/DX2                !
 ! A45   A(23,22,24)           107.9724         estimate D2E/DX2                !
 ! A46   A(23,22,25)           109.7142         estimate D2E/DX2                !
 ! A47   A(24,22,25)           109.7142         estimate D2E/DX2                !
 ! A48   A(22,25,26)           109.642          estimate D2E/DX2                !
 ! A49   A(22,25,27)           109.7029         estimate D2E/DX2                !
 ! A50   A(22,25,28)           107.4968         estimate D2E/DX2                !
 ! A51   A(26,25,27)           107.8606         estimate D2E/DX2                !
 ! A52   A(26,25,28)           111.0815         estimate D2E/DX2                !
 ! A53   A(27,25,28)           111.054          estimate D2E/DX2                !
 ! A54   A(25,28,29)           113.4925         estimate D2E/DX2                !
 ! A55   A(28,29,30)           110.9786         estimate D2E/DX2                !
 ! A56   A(28,29,31)           110.9399         estimate D2E/DX2                !
 ! A57   A(28,29,32)           107.6274         estimate D2E/DX2                !
 ! A58   A(30,29,31)           107.9028         estimate D2E/DX2                !
 ! A59   A(30,29,32)           109.7231         estimate D2E/DX2                !
 ! A60   A(31,29,32)           109.6669         estimate D2E/DX2                !
 ! A61   A(29,32,33)           109.6129         estimate D2E/DX2                !
 ! A62   A(29,32,34)           109.6129         estimate D2E/DX2                !
 ! A63   A(29,32,35)           107.5165         estimate D2E/DX2                !
 ! A64   A(33,32,34)           107.8139         estimate D2E/DX2                !
 ! A65   A(33,32,35)           111.1394         estimate D2E/DX2                !
 ! A66   A(34,32,35)           111.1394         estimate D2E/DX2                !
 ! A67   A(32,35,36)           112.9567         estimate D2E/DX2                !
 ! A68   A(35,36,37)           111.6269         estimate D2E/DX2                !
 ! A69   A(35,36,38)           107.2479         estimate D2E/DX2                !
 ! A70   A(35,36,39)           111.6269         estimate D2E/DX2                !
 ! A71   A(37,36,38)           108.9234         estimate D2E/DX2                !
 ! A72   A(37,36,39)           108.4269         estimate D2E/DX2                !
 ! A73   A(38,36,39)           108.9234         estimate D2E/DX2                !
 ! A74   A(13,40,41)           110.7188         estimate D2E/DX2                !
 ! A75   A(13,40,42)           110.7349         estimate D2E/DX2                !
 ! A76   A(13,40,43)           106.976          estimate D2E/DX2                !
 ! A77   A(41,40,42)           108.7831         estimate D2E/DX2                !
 ! A78   A(41,40,43)           109.7669         estimate D2E/DX2                !
 ! A79   A(42,40,43)           109.8474         estimate D2E/DX2                !
 ! A80   A(40,43,44)           109.9013         estimate D2E/DX2                !
 ! A81   A(40,43,45)           109.8211         estimate D2E/DX2                !
 ! A82   A(40,43,46)           106.8069         estimate D2E/DX2                !
 ! A83   A(44,43,45)           108.0785         estimate D2E/DX2                !
 ! A84   A(44,43,46)           111.1254         estimate D2E/DX2                !
 ! A85   A(45,43,46)           111.1091         estimate D2E/DX2                !
 ! A86   A(43,46,47)           113.4955         estimate D2E/DX2                !
 ! A87   A(46,47,48)           110.9559         estimate D2E/DX2                !
 ! A88   A(46,47,49)           110.9326         estimate D2E/DX2                !
 ! A89   A(46,47,50)           107.5732         estimate D2E/DX2                !
 ! A90   A(48,47,49)           107.9303         estimate D2E/DX2                !
 ! A91   A(48,47,50)           109.7337         estimate D2E/DX2                !
 ! A92   A(49,47,50)           109.7142         estimate D2E/DX2                !
 ! A93   A(47,50,51)           109.6879         estimate D2E/DX2                !
 ! A94   A(47,50,52)           109.7029         estimate D2E/DX2                !
 ! A95   A(47,50,53)           107.4654         estimate D2E/DX2                !
 ! A96   A(51,50,52)           107.8596         estimate D2E/DX2                !
 ! A97   A(51,50,53)           111.0535         estimate D2E/DX2                !
 ! A98   A(52,50,53)           111.0697         estimate D2E/DX2                !
 ! A99   A(50,53,54)           113.461          estimate D2E/DX2                !
 ! A100  A(53,54,55)           110.9625         estimate D2E/DX2                !
 ! A101  A(53,54,56)           110.9399         estimate D2E/DX2                !
 ! A102  A(53,54,57)           107.6008         estimate D2E/DX2                !
 ! A103  A(55,54,56)           107.9335         estimate D2E/DX2                !
 ! A104  A(55,54,57)           109.7216         estimate D2E/DX2                !
 ! A105  A(56,54,57)           109.6805         estimate D2E/DX2                !
 ! A106  A(54,57,58)           109.6677         estimate D2E/DX2                !
 ! A107  A(54,57,59)           109.6266         estimate D2E/DX2                !
 ! A108  A(54,57,60)           107.5087         estimate D2E/DX2                !
 ! A109  A(58,57,59)           107.8213         estimate D2E/DX2                !
 ! A110  A(58,57,60)           111.0826         estimate D2E/DX2                !
 ! A111  A(59,57,60)           111.13           estimate D2E/DX2                !
 ! A112  A(57,60,61)           112.9755         estimate D2E/DX2                !
 ! A113  A(60,61,62)           111.6269         estimate D2E/DX2                !
 ! A114  A(60,61,63)           107.2479         estimate D2E/DX2                !
 ! A115  A(60,61,64)           111.5835         estimate D2E/DX2                !
 ! A116  A(62,61,63)           108.9684         estimate D2E/DX2                !
 ! A117  A(62,61,64)           108.4266         estimate D2E/DX2                !
 ! A118  A(63,61,64)           108.9242         estimate D2E/DX2                !
 ! A119  A(4,65,66)            114.9083         estimate D2E/DX2                !
 ! A120  A(4,65,70)             97.9521         estimate D2E/DX2                !
 ! A121  A(4,65,74)            114.8601         estimate D2E/DX2                !
 ! A122  A(66,65,70)           109.4612         estimate D2E/DX2                !
 ! A123  A(66,65,74)           109.4839         estimate D2E/DX2                !
 ! A124  A(70,65,74)           109.4612         estimate D2E/DX2                !
 ! A125  A(65,66,67)           109.4712         estimate D2E/DX2                !
 ! A126  A(65,66,68)           109.4758         estimate D2E/DX2                !
 ! A127  A(65,66,69)           109.4877         estimate D2E/DX2                !
 ! A128  A(67,66,68)           109.4096         estimate D2E/DX2                !
 ! A129  A(67,66,69)           109.4871         estimate D2E/DX2                !
 ! A130  A(68,66,69)           109.4958         estimate D2E/DX2                !
 ! A131  A(65,70,71)           109.4886         estimate D2E/DX2                !
 ! A132  A(65,70,72)           109.4838         estimate D2E/DX2                !
 ! A133  A(65,70,73)           109.4845         estimate D2E/DX2                !
 ! A134  A(71,70,72)           109.5048         estimate D2E/DX2                !
 ! A135  A(71,70,73)           109.4208         estimate D2E/DX2                !
 ! A136  A(72,70,73)           109.4448         estimate D2E/DX2                !
 ! A137  A(65,74,75)           109.4681         estimate D2E/DX2                !
 ! A138  A(65,74,76)           109.4776         estimate D2E/DX2                !
 ! A139  A(65,74,77)           109.4883         estimate D2E/DX2                !
 ! A140  A(75,74,76)           109.4484         estimate D2E/DX2                !
 ! A141  A(75,74,77)           109.466          estimate D2E/DX2                !
 ! A142  A(76,74,77)           109.4788         estimate D2E/DX2                !
 ! A143  A(11,78,79)           119.848          estimate D2E/DX2                !
 ! A144  A(11,78,83)           111.3953         estimate D2E/DX2                !
 ! A145  A(11,78,87)           114.4622         estimate D2E/DX2                !
 ! A146  A(79,78,83)            97.8625         estimate D2E/DX2                !
 ! A147  A(79,78,87)           107.2649         estimate D2E/DX2                !
 ! A148  A(83,78,87)           103.683          estimate D2E/DX2                !
 ! A149  A(78,79,80)           109.485          estimate D2E/DX2                !
 ! A150  A(78,79,81)           109.4426         estimate D2E/DX2                !
 ! A151  A(78,79,82)           109.4661         estimate D2E/DX2                !
 ! A152  A(80,79,81)           109.4547         estimate D2E/DX2                !
 ! A153  A(80,79,82)           109.4949         estimate D2E/DX2                !
 ! A154  A(81,79,82)           109.484          estimate D2E/DX2                !
 ! A155  A(78,83,84)           109.4504         estimate D2E/DX2                !
 ! A156  A(78,83,85)           109.4678         estimate D2E/DX2                !
 ! A157  A(78,83,86)           109.4704         estimate D2E/DX2                !
 ! A158  A(84,83,85)           109.4989         estimate D2E/DX2                !
 ! A159  A(84,83,86)           109.4681         estimate D2E/DX2                !
 ! A160  A(85,83,86)           109.4717         estimate D2E/DX2                !
 ! A161  A(78,87,88)           109.4847         estimate D2E/DX2                !
 ! A162  A(78,87,89)           109.448          estimate D2E/DX2                !
 ! A163  A(78,87,90)           109.4301         estimate D2E/DX2                !
 ! A164  A(88,87,89)           109.5353         estimate D2E/DX2                !
 ! A165  A(88,87,90)           109.48           estimate D2E/DX2                !
 ! A166  A(89,87,90)           109.4492         estimate D2E/DX2                !
 ! D1    D(5,1,2,3)              0.0            estimate D2E/DX2                !
 ! D2    D(5,1,2,6)            179.9517         estimate D2E/DX2                !
 ! D3    D(8,1,2,3)            180.0            estimate D2E/DX2                !
 ! D4    D(8,1,2,6)             -0.0483         estimate D2E/DX2                !
 ! D5    D(2,1,5,4)              0.0            estimate D2E/DX2                !
 ! D6    D(8,1,5,4)            180.0            estimate D2E/DX2                !
 ! D7    D(2,1,8,9)            180.0            estimate D2E/DX2                !
 ! D8    D(2,1,8,12)             0.0387         estimate D2E/DX2                !
 ! D9    D(5,1,8,9)              0.0            estimate D2E/DX2                !
 ! D10   D(5,1,8,12)          -179.9613         estimate D2E/DX2                !
 ! D11   D(1,2,3,4)              0.0            estimate D2E/DX2                !
 ! D12   D(1,2,3,7)            179.9357         estimate D2E/DX2                !
 ! D13   D(6,2,3,4)           -179.948          estimate D2E/DX2                !
 ! D14   D(6,2,3,7)             -0.0123         estimate D2E/DX2                !
 ! D15   D(1,2,6,15)          -179.9987         estimate D2E/DX2                !
 ! D16   D(3,2,6,15)            -0.0532         estimate D2E/DX2                !
 ! D17   D(2,3,4,5)              0.0            estimate D2E/DX2                !
 ! D18   D(2,3,4,65)           179.9696         estimate D2E/DX2                !
 ! D19   D(7,3,4,5)           -179.9364         estimate D2E/DX2                !
 ! D20   D(7,3,4,65)             0.0332         estimate D2E/DX2                !
 ! D21   D(3,4,5,1)              0.0            estimate D2E/DX2                !
 ! D22   D(65,4,5,1)          -179.9654         estimate D2E/DX2                !
 ! D23   D(3,4,65,66)          -64.1551         estimate D2E/DX2                !
 ! D24   D(3,4,65,70)         -179.9893         estimate D2E/DX2                !
 ! D25   D(3,4,65,74)           64.1948         estimate D2E/DX2                !
 ! D26   D(5,4,65,66)          115.8086         estimate D2E/DX2                !
 ! D27   D(5,4,65,70)           -0.0256         estimate D2E/DX2                !
 ! D28   D(5,4,65,74)         -115.8415         estimate D2E/DX2                !
 ! D29   D(2,6,15,16)           60.3535         estimate D2E/DX2                !
 ! D30   D(2,6,15,17)          -60.2859         estimate D2E/DX2                !
 ! D31   D(2,6,15,18)         -179.9523         estimate D2E/DX2                !
 ! D32   D(1,8,9,10)           180.0            estimate D2E/DX2                !
 ! D33   D(1,8,9,13)             0.0            estimate D2E/DX2                !
 ! D34   D(12,8,9,10)           -0.0345         estimate D2E/DX2                !
 ! D35   D(12,8,9,13)          179.9655         estimate D2E/DX2                !
 ! D36   D(1,8,12,11)         -179.9866         estimate D2E/DX2                !
 ! D37   D(9,8,12,11)            0.0457         estimate D2E/DX2                !
 ! D38   D(8,9,10,11)            0.0            estimate D2E/DX2                !
 ! D39   D(8,9,10,14)          180.0            estimate D2E/DX2                !
 ! D40   D(13,9,10,11)         180.0            estimate D2E/DX2                !
 ! D41   D(13,9,10,14)           0.0            estimate D2E/DX2                !
 ! D42   D(8,9,13,40)          180.0            estimate D2E/DX2                !
 ! D43   D(10,9,13,40)           0.0            estimate D2E/DX2                !
 ! D44   D(9,10,11,12)           0.0359         estimate D2E/DX2                !
 ! D45   D(9,10,11,78)         179.9685         estimate D2E/DX2                !
 ! D46   D(14,10,11,12)       -179.9641         estimate D2E/DX2                !
 ! D47   D(14,10,11,78)         -0.0315         estimate D2E/DX2                !
 ! D48   D(10,11,12,8)          -0.0474         estimate D2E/DX2                !
 ! D49   D(78,11,12,8)        -179.9769         estimate D2E/DX2                !
 ! D50   D(10,11,78,79)        129.5663         estimate D2E/DX2                !
 ! D51   D(10,11,78,83)       -117.2167         estimate D2E/DX2                !
 ! D52   D(10,11,78,87)         -0.0002         estimate D2E/DX2                !
 ! D53   D(12,11,78,79)        -50.5105         estimate D2E/DX2                !
 ! D54   D(12,11,78,83)         62.7065         estimate D2E/DX2                !
 ! D55   D(12,11,78,87)        179.923          estimate D2E/DX2                !
 ! D56   D(9,13,40,41)          60.3884         estimate D2E/DX2                !
 ! D57   D(9,13,40,42)         -60.3608         estimate D2E/DX2                !
 ! D58   D(9,13,40,43)         179.9605         estimate D2E/DX2                !
 ! D59   D(6,15,18,19)         -59.3294         estimate D2E/DX2                !
 ! D60   D(6,15,18,20)          59.3294         estimate D2E/DX2                !
 ! D61   D(6,15,18,21)         180.0            estimate D2E/DX2                !
 ! D62   D(16,15,18,19)         60.9419         estimate D2E/DX2                !
 ! D63   D(16,15,18,20)        179.6007         estimate D2E/DX2                !
 ! D64   D(16,15,18,21)        -59.7287         estimate D2E/DX2                !
 ! D65   D(17,15,18,19)       -179.5727         estimate D2E/DX2                !
 ! D66   D(17,15,18,20)        -60.9139         estimate D2E/DX2                !
 ! D67   D(17,15,18,21)         59.7567         estimate D2E/DX2                !
 ! D68   D(15,18,21,22)        180.0            estimate D2E/DX2                !
 ! D69   D(19,18,21,22)         60.1343         estimate D2E/DX2                !
 ! D70   D(20,18,21,22)        -60.1343         estimate D2E/DX2                !
 ! D71   D(18,21,22,23)        -60.0008         estimate D2E/DX2                !
 ! D72   D(18,21,22,24)         60.0008         estimate D2E/DX2                !
 ! D73   D(18,21,22,25)        180.0            estimate D2E/DX2                !
 ! D74   D(21,22,25,26)         59.139          estimate D2E/DX2                !
 ! D75   D(21,22,25,27)        -59.1368         estimate D2E/DX2                !
 ! D76   D(21,22,25,28)        180.0            estimate D2E/DX2                !
 ! D77   D(23,22,25,26)        -61.6299         estimate D2E/DX2                !
 ! D78   D(23,22,25,27)       -179.9057         estimate D2E/DX2                !
 ! D79   D(23,22,25,28)         59.2311         estimate D2E/DX2                !
 ! D80   D(24,22,25,26)        179.9079         estimate D2E/DX2                !
 ! D81   D(24,22,25,27)         61.6321         estimate D2E/DX2                !
 ! D82   D(24,22,25,28)        -59.2311         estimate D2E/DX2                !
 ! D83   D(22,25,28,29)       -179.9559         estimate D2E/DX2                !
 ! D84   D(26,25,28,29)        -60.0053         estimate D2E/DX2                !
 ! D85   D(27,25,28,29)         60.0352         estimate D2E/DX2                !
 ! D86   D(25,28,29,30)         59.9242         estimate D2E/DX2                !
 ! D87   D(25,28,29,31)        -60.0251         estimate D2E/DX2                !
 ! D88   D(25,28,29,32)        179.9953         estimate D2E/DX2                !
 ! D89   D(28,29,32,33)         59.0314         estimate D2E/DX2                !
 ! D90   D(28,29,32,34)        -59.1164         estimate D2E/DX2                !
 ! D91   D(28,29,32,35)        179.9575         estimate D2E/DX2                !
 ! D92   D(30,29,32,33)        179.8942         estimate D2E/DX2                !
 ! D93   D(30,29,32,34)         61.7464         estimate D2E/DX2                !
 ! D94   D(30,29,32,35)        -59.1797         estimate D2E/DX2                !
 ! D95   D(31,29,32,33)        -61.7516         estimate D2E/DX2                !
 ! D96   D(31,29,32,34)       -179.8994         estimate D2E/DX2                !
 ! D97   D(31,29,32,35)         59.1745         estimate D2E/DX2                !
 ! D98   D(29,32,35,36)        180.0            estimate D2E/DX2                !
 ! D99   D(33,32,35,36)        -60.0386         estimate D2E/DX2                !
 ! D100  D(34,32,35,36)         60.0386         estimate D2E/DX2                !
 ! D101  D(32,35,36,37)         60.7659         estimate D2E/DX2                !
 ! D102  D(32,35,36,38)        180.0            estimate D2E/DX2                !
 ! D103  D(32,35,36,39)        -60.7659         estimate D2E/DX2                !
 ! D104  D(13,40,43,44)        -59.3525         estimate D2E/DX2                !
 ! D105  D(13,40,43,45)         59.4177         estimate D2E/DX2                !
 ! D106  D(13,40,43,46)       -179.9999         estimate D2E/DX2                !
 ! D107  D(41,40,43,44)         60.8307         estimate D2E/DX2                !
 ! D108  D(41,40,43,45)        179.6008         estimate D2E/DX2                !
 ! D109  D(41,40,43,46)        -59.8167         estimate D2E/DX2                !
 ! D110  D(42,40,43,44)       -179.6004         estimate D2E/DX2                !
 ! D111  D(42,40,43,45)        -60.8302         estimate D2E/DX2                !
 ! D112  D(42,40,43,46)         59.7523         estimate D2E/DX2                !
 ! D113  D(40,43,46,47)       -179.9606         estimate D2E/DX2                !
 ! D114  D(44,43,46,47)         60.1773         estimate D2E/DX2                !
 ! D115  D(45,43,46,47)        -60.2051         estimate D2E/DX2                !
 ! D116  D(43,46,47,48)        -59.9632         estimate D2E/DX2                !
 ! D117  D(43,46,47,49)         60.0008         estimate D2E/DX2                !
 ! D118  D(43,46,47,50)        180.0            estimate D2E/DX2                !
 ! D119  D(46,47,50,51)         59.1652         estimate D2E/DX2                !
 ! D120  D(46,47,50,52)        -59.1368         estimate D2E/DX2                !
 ! D121  D(46,47,50,53)        180.0            estimate D2E/DX2                !
 ! D122  D(48,47,50,51)        -61.6434         estimate D2E/DX2                !
 ! D123  D(48,47,50,52)       -179.9454         estimate D2E/DX2                !
 ! D124  D(48,47,50,53)         59.1914         estimate D2E/DX2                !
 ! D125  D(49,47,50,51)        179.9341         estimate D2E/DX2                !
 ! D126  D(49,47,50,52)         61.6321         estimate D2E/DX2                !
 ! D127  D(49,47,50,53)        -59.2311         estimate D2E/DX2                !
 ! D128  D(47,50,53,54)       -179.9559         estimate D2E/DX2                !
 ! D129  D(51,50,53,54)        -59.9853         estimate D2E/DX2                !
 ! D130  D(52,50,53,54)         60.0456         estimate D2E/DX2                !
 ! D131  D(50,53,54,55)         59.9522         estimate D2E/DX2                !
 ! D132  D(50,53,54,56)        -60.0251         estimate D2E/DX2                !
 ! D133  D(50,53,54,57)        179.9953         estimate D2E/DX2                !
 ! D134  D(53,54,57,58)         59.0731         estimate D2E/DX2                !
 ! D135  D(53,54,57,59)        -59.1245         estimate D2E/DX2                !
 ! D136  D(53,54,57,60)        179.9576         estimate D2E/DX2                !
 ! D137  D(55,54,57,58)        179.8993         estimate D2E/DX2                !
 ! D138  D(55,54,57,59)         61.7017         estimate D2E/DX2                !
 ! D139  D(55,54,57,60)        -59.2163         estimate D2E/DX2                !
 ! D140  D(56,54,57,58)        -61.7018         estimate D2E/DX2                !
 ! D141  D(56,54,57,59)       -179.8993         estimate D2E/DX2                !
 ! D142  D(56,54,57,60)         59.1827         estimate D2E/DX2                !
 ! D143  D(54,57,60,61)        180.0            estimate D2E/DX2                !
 ! D144  D(58,57,60,61)        -60.01           estimate D2E/DX2                !
 ! D145  D(59,57,60,61)         60.0324         estimate D2E/DX2                !
 ! D146  D(57,60,61,62)         60.7659         estimate D2E/DX2                !
 ! D147  D(57,60,61,63)       -179.945          estimate D2E/DX2                !
 ! D148  D(57,60,61,64)        -60.7348         estimate D2E/DX2                !
 ! D149  D(4,65,66,67)          78.8333         estimate D2E/DX2                !
 ! D150  D(4,65,66,68)        -161.2394         estimate D2E/DX2                !
 ! D151  D(4,65,66,69)         -41.1964         estimate D2E/DX2                !
 ! D152  D(70,65,66,67)       -172.149          estimate D2E/DX2                !
 ! D153  D(70,65,66,68)        -52.2217         estimate D2E/DX2                !
 ! D154  D(70,65,66,69)         67.8214         estimate D2E/DX2                !
 ! D155  D(74,65,66,67)        -52.1598         estimate D2E/DX2                !
 ! D156  D(74,65,66,68)         67.7675         estimate D2E/DX2                !
 ! D157  D(74,65,66,69)       -172.1894         estimate D2E/DX2                !
 ! D158  D(4,65,70,71)         -60.1295         estimate D2E/DX2                !
 ! D159  D(4,65,70,72)          59.93           estimate D2E/DX2                !
 ! D160  D(4,65,70,73)         179.9135         estimate D2E/DX2                !
 ! D161  D(66,65,70,71)        179.8451         estimate D2E/DX2                !
 ! D162  D(66,65,70,72)        -60.0955         estimate D2E/DX2                !
 ! D163  D(66,65,70,73)         59.888          estimate D2E/DX2                !
 ! D164  D(74,65,70,71)         59.8419         estimate D2E/DX2                !
 ! D165  D(74,65,70,72)        179.9014         estimate D2E/DX2                !
 ! D166  D(74,65,70,73)        -60.1151         estimate D2E/DX2                !
 ! D167  D(4,65,74,75)         164.2095         estimate D2E/DX2                !
 ! D168  D(4,65,74,76)         -75.8164         estimate D2E/DX2                !
 ! D169  D(4,65,74,77)          44.2073         estimate D2E/DX2                !
 ! D170  D(66,65,74,75)        -64.7717         estimate D2E/DX2                !
 ! D171  D(66,65,74,76)         55.2024         estimate D2E/DX2                !
 ! D172  D(66,65,74,77)        175.2261         estimate D2E/DX2                !
 ! D173  D(70,65,74,75)         55.2175         estimate D2E/DX2                !
 ! D174  D(70,65,74,76)        175.1916         estimate D2E/DX2                !
 ! D175  D(70,65,74,77)        -64.7847         estimate D2E/DX2                !
 ! D176  D(11,78,79,80)         80.7584         estimate D2E/DX2                !
 ! D177  D(11,78,79,81)       -159.2709         estimate D2E/DX2                !
 ! D178  D(11,78,79,82)        -39.2759         estimate D2E/DX2                !
 ! D179  D(83,78,79,80)        -39.4951         estimate D2E/DX2                !
 ! D180  D(83,78,79,81)         80.4757         estimate D2E/DX2                !
 ! D181  D(83,78,79,82)       -159.5294         estimate D2E/DX2                !
 ! D182  D(87,78,79,80)       -146.5315         estimate D2E/DX2                !
 ! D183  D(87,78,79,81)        -26.5608         estimate D2E/DX2                !
 ! D184  D(87,78,79,82)         93.4342         estimate D2E/DX2                !
 ! D185  D(11,78,83,84)        164.9842         estimate D2E/DX2                !
 ! D186  D(11,78,83,85)        -74.9968         estimate D2E/DX2                !
 ! D187  D(11,78,83,86)         45.0012         estimate D2E/DX2                !
 ! D188  D(79,78,83,84)        -68.5946         estimate D2E/DX2                !
 ! D189  D(79,78,83,85)         51.4244         estimate D2E/DX2                !
 ! D190  D(79,78,83,86)        171.4224         estimate D2E/DX2                !
 ! D191  D(87,78,83,84)         41.4029         estimate D2E/DX2                !
 ! D192  D(87,78,83,85)        161.4219         estimate D2E/DX2                !
 ! D193  D(87,78,83,86)        -78.5801         estimate D2E/DX2                !
 ! D194  D(11,78,87,88)        -58.6701         estimate D2E/DX2                !
 ! D195  D(11,78,87,89)         61.4024         estimate D2E/DX2                !
 ! D196  D(11,78,87,90)       -178.6639         estimate D2E/DX2                !
 ! D197  D(79,78,87,88)        165.7709         estimate D2E/DX2                !
 ! D198  D(79,78,87,89)        -74.1565         estimate D2E/DX2                !
 ! D199  D(79,78,87,90)         45.7771         estimate D2E/DX2                !
 ! D200  D(83,78,87,88)         62.8797         estimate D2E/DX2                !
 ! D201  D(83,78,87,89)       -177.0478         estimate D2E/DX2                !
 ! D202  D(83,78,87,90)        -57.1141         estimate D2E/DX2                !
 --------------------------------------------------------------------------------
 Trust Radius=3.00D-01 FncErr=1.00D-07 GrdErr=1.00D-06 EigMax=2.50D+02 EigMin=1.00D-04
 Number of steps in this run=    469 maximum allowed number of steps=    540.
 GradGradGradGradGradGradGradGradGradGradGradGradGradGradGradGradGradGrad

 Leave Link  103 at Thu Jan 16 14:08:06 2020, MaxMem=  6710886400 cpu:               0.3 elap:               0.1
 (Enter /apps/gaussian/g16-a03/l202.exe)
 Stoichiometry    C28H50O8S2Sn2
 Framework group  C1[X(C28H50O8S2Sn2)]
 Deg. of freedom   264
 Full point group                 C1      NOp   1
 Largest Abelian subgroup         C1      NOp   1
 Largest concise Abelian subgroup C1      NOp   1
                         Standard orientation:                         
 ---------------------------------------------------------------------
 Center     Atomic      Atomic             Coordinates (Angstroms)
 Number     Number       Type             X           Y           Z
 ---------------------------------------------------------------------
      1          6           0       -0.108224   -0.720155   -0.006688
      2          6           0       -1.336260   -1.362717   -0.004735
      3          6           0       -1.253374   -2.783915   -0.000319
      4          6           0        0.037781   -3.222980    0.001089
      5         16           0        1.174876   -1.922763   -0.002909
      6          8           0       -2.482958   -0.624375   -0.006067
      7          1           0       -2.107731   -3.444741    0.002704
      8          6           0        0.155063    0.699993   -0.011089
      9          6           0        1.383100    1.342556   -0.013042
     10          6           0        1.301213    2.763782   -0.017458
     11          6           0        0.009059    3.202819   -0.018865
     12         16           0       -1.128065    1.903604   -0.013870
     13          8           0        2.529797    0.604216   -0.010710
     14          1           0        2.154542    3.425582   -0.019483
     15          6           0       -3.728607   -1.315463   -0.003964
     16          1           0       -3.821511   -1.944627    0.887991
     17          1           0       -3.821450   -1.950158   -0.893000
     18          6           0       -4.821328   -0.262443   -0.007271
     19          1           0       -4.724688    0.379357    0.879743
     20          1           0       -4.724627    0.373836   -0.898248
     21          8           0       -6.055982   -0.953216   -0.005169
     22          6           0       -7.183110   -0.095265   -0.007872
     23          1           0       -7.184716    0.553714    0.879117
     24          1           0       -7.184655    0.548193   -0.898874
     25          6           0       -8.424498   -0.969305   -0.005200
     26          1           0       -8.420924   -1.613706    0.885805
     27          1           0       -8.421863   -1.619252   -0.891186
     28          8           0       -9.548627   -0.111268   -0.007903
     29          6           0      -10.785309   -0.801095   -0.004804
     30          1           0      -10.877983   -1.438262    0.885176
     31          1           0      -10.878921   -1.443809   -0.891816
     32          6           0      -11.891650    0.238527   -0.008070
     33          1           0      -11.796006    0.876777   -0.899053
     34          1           0      -11.796067    0.882298    0.878938
     35          8           0      -13.124305   -0.452187   -0.005968
     36          6           0      -14.240638    0.413077   -0.008693
     37          1           0      -14.255092    1.053153   -0.902685
     38          1           0      -15.134043   -0.211859   -0.006783
     39          1           0      -14.255153    1.058693    0.881306
     40          6           0        3.775418    1.296304   -0.012816
     41          1           0        3.868290    1.929999    0.876224
     42          1           0        3.868351    1.924469   -0.904767
     43          6           0        4.868167    0.242288   -0.008505
     44          1           0        4.771437   -0.392992    0.882468
     45          1           0        4.771499   -0.398516   -0.896523
     46          8           0        6.102821    0.933060   -0.010608
     47          6           0        7.229949    0.075109   -0.007905
     48          1           0        7.231523   -0.569348    0.883101
     49          1           0        7.231556   -0.573870   -0.894894
     50          6           0        8.471337    0.949150   -0.010576
     51          1           0        8.468702    1.599100    0.876410
     52          1           0        8.468763    1.593582   -0.900582
     53          8           0        9.595495    0.090113   -0.007870
     54          6           0       10.832177    0.779946   -0.008970
     55          1           0       10.924790    1.422631    0.878042
     56          1           0       10.925851    1.417139   -0.899949
     57          6           0       11.937519   -0.259705   -0.005703
     58          1           0       11.842935   -0.903447   -0.892712
     59          1           0       11.841874   -0.897955    0.885280
     60          8           0       13.171173    0.431039   -0.007806
     61          6           0       14.287506   -0.434226   -0.005080
     62          1           0       14.302022   -1.079842   -0.895080
     63          1           0       15.180911    0.190714   -0.005990
     64          1           0       14.300961   -1.074331    0.888912
     65         50           0        0.394569   -5.332583    0.008652
     66          6           0       -0.298787   -6.370435    1.783859
     67          1           0       -1.355868   -6.522088    1.718294
     68          1           0        0.192671   -7.318475    1.857821
     69          1           0       -0.075502   -5.784082    2.650051
     70          6           0        2.563672   -5.270206    0.008533
     71          1           0        2.906125   -4.760871   -0.868041
     72          1           0        2.905950   -4.751445    0.879938
     73          1           0        2.949528   -6.268516    0.013646
     74          6           0       -0.298665   -6.381440   -1.760123
     75          1           0        0.153389   -7.350975   -1.800098
     76          1           0       -1.363099   -6.485953   -1.718835
     77          1           0       -0.028563   -5.826154   -2.632843
     78         50           0       -0.475073    5.287757   -0.024356
     79          6           0       -1.887078    6.064981   -1.477825
     80          1           0       -2.884932    5.872253   -1.144260
     81          1           0       -1.744356    7.120194   -1.584097
     82          1           0       -1.727308    5.586444   -2.421338
     83          6           0       -1.554713    5.854533    1.770855
     84          1           0       -1.552343    6.920344    1.866546
     85          1           0       -2.563063    5.504200    1.705908
     86          1           0       -1.079940    5.418651    2.625229
     87          6           0        1.245637    6.609762   -0.027402
     88          1           0        1.847570    6.413657    0.834232
     89          1           0        1.822663    6.441529   -0.912864
     90          1           0        0.913269    7.626698   -0.006571
 ---------------------------------------------------------------------
 Rotational constants (GHZ):           0.0451774           0.0177672           0.0128918
 Leave Link  202 at Thu Jan 16 14:08:07 2020, MaxMem=  6710886400 cpu:               0.2 elap:               0.0
 (Enter /apps/gaussian/g16-a03/l301.exe)
 Standard basis: LANL2DZ (5D, 7F)
 Ernie: Thresh=  0.10000D-02 Tol=  0.10000D-05 Strict=F.
 There are   456 symmetry adapted cartesian basis functions of A   symmetry.
 There are   456 symmetry adapted basis functions of A   symmetry.
   456 basis functions,  1148 primitive gaussians,   456 cartesian basis functions
   151 alpha electrons      151 beta electrons
       nuclear repulsion energy      3844.0092051926 Hartrees.



 Warning!  S  atom    5 may be hypervalent but has no d functions.
 Warning!  S  atom   12 may be hypervalent but has no d functions.



 IExCor=  402 DFT=T Ex+Corr=B3LYP ExCW=0 ScaHFX=  0.200000
 ScaDFX=  0.800000  0.720000  1.000000  0.810000 ScalE2=  1.000000  1.000000
 IRadAn=      5 IRanWt=     -1 IRanGd=            0 ICorTp=0 IEmpDi=  4
 NAtoms=   90 NActive=   90 NUniq=   90 SFac= 1.00D+00 NAtFMM=   60 NAOKFM=T Big=T
 Integral buffers will be    131072 words long.
 Raffenetti 2 integral format.
 Two-electron integral symmetry is turned on.
 Leave Link  301 at Thu Jan 16 14:08:07 2020, MaxMem=  6710886400 cpu:               1.4 elap:               0.1
 (Enter /apps/gaussian/g16-a03/l302.exe)
 NPDir=0 NMtPBC=     1 NCelOv=     1 NCel=       1 NClECP=     1 NCelD=      1
         NCelK=      1 NCelE2=     1 NClLst=     1 CellRange=     0.0.
 One-electron integrals computed using PRISM.
 One-electron integral symmetry used in STVInt
   1 Symmetry operations used in ECPInt.
 ECPInt:  NShTT=   43956 NPrTT=  293396 LenC2=   25423 LenP2D=   85746.
 LDataN:  DoStor=T MaxTD1= 4 Len=   56
 NBasis=   456 RedAO= T EigKep=  9.84D-04  NBF=   456
 NBsUse=   456 1.00D-06 EigRej= -1.00D+00 NBFU=   456
 Precomputing XC quadrature grid using
 IXCGrd= 4 IRadAn=           5 IRanWt=          -1 IRanGd=           0 AccXCQ= 0.00D+00.
 Defaulting to unpruned grid for atomic number  50.
 Defaulting to unpruned grid for atomic number  50.
 Generated NRdTot=       0 NPtTot=           0 NUsed=           0 NTot=          32
 NSgBfM=   387   384   384   387   387 MxSgAt=    90 MxSgA2=    90.
 Leave Link  302 at Thu Jan 16 14:08:11 2020, MaxMem=  6710886400 cpu:              46.9 elap:               3.0
 (Enter /apps/gaussian/g16-a03/l303.exe)
 DipDrv:  MaxL=1.
 Leave Link  303 at Thu Jan 16 14:08:11 2020, MaxMem=  6710886400 cpu:               2.3 elap:               0.2
 (Enter /apps/gaussian/g16-a03/l401.exe)
 ExpMin= 6.30D-02 ExpMax= 7.82D+03 ExpMxC= 2.73D+02 IAcc=3 IRadAn=         5 AccDes= 0.00D+00
 Harris functional with IExCor=  402 and IRadAn=       5 diagonalized for initial guess.
 HarFok:  IExCor=  402 AccDes= 0.00D+00 IRadAn=         5 IDoV= 1 UseB2=F ITyADJ=14
 ICtDFT=  3500011 ScaDFX=  1.000000  1.000000  1.000000  1.000000
 Defaulting to unpruned grid for atomic number  50.
 FoFCou: FMM=F IPFlag=           0 FMFlag=      100000 FMFlg1=        2001
         NFxFlg=           0 DoJE=T BraDBF=F KetDBF=T FulRan=T
         wScrn=  0.000000 ICntrl=       500 IOpCl=  0 I1Cent=   200000004 NGrid=           0
         NMat0=    1 NMatS0=      1 NMatT0=    0 NMatD0=    1 NMtDS0=    0 NMtDT0=    0
 Petite list used in FoFCou.
 Harris En= -1725.69014696885    
 JPrj=0 DoOrth=F DoCkMO=F.
 Leave Link  401 at Thu Jan 16 14:08:18 2020, MaxMem=  6710886400 cpu:             106.7 elap:               6.7
 (Enter /apps/gaussian/g16-a03/l502.exe)
 Integral symmetry usage will be decided dynamically.
 Closed shell SCF:
 Using DIIS extrapolation, IDIIS=  1040.
 NGot=  6710886400 LenX=  6710456782 LenY=  6710248390
 Requested convergence on RMS density matrix=1.00D-08 within 128 cycles.
 Requested convergence on MAX density matrix=1.00D-06.
 Requested convergence on             energy=1.00D-06.
 No special actions if energy rises.
 Fock matrices will be formed incrementally for  20 cycles.
 Integral accuracy reduced to 1.0D-05 until final iterations.

 Cycle   1  Pass 0  IDiag  1:
 FoFJK:  IHMeth= 1 ICntrl=       0 DoSepK=F KAlg= 0 I1Cent=           0 FoldK=F
 IRaf= 730000000 NMat=       1 IRICut=       1 DoRegI=T DoRafI=F ISym2E= 0 IDoP0=0 IntGTp=1.
 FoFCou: FMM=T IPFlag=           0 FMFlag=      100000 FMFlg1=        2001
         NFxFlg=           0 DoJE=F BraDBF=F KetDBF=F FulRan=T
         wScrn=  0.000000 ICntrl=         0 IOpCl=  0 I1Cent=           0 NGrid=           0
         NMat0=    1 NMatS0=      1 NMatT0=    0 NMatD0=    1 NMtDS0=    0 NMtDT0=    0
 Symmetry not used in FoFCou.
 FMM levels:  10  Number of levels for PrismC:   9
 Defaulting to unpruned grid for atomic number  50.
 Defaulting to unpruned grid for atomic number  50.
 Defaulting to unpruned grid for atomic number  50.
 Defaulting to unpruned grid for atomic number  50.
 Defaulting to unpruned grid for atomic number  50.
 Defaulting to unpruned grid for atomic number  50.
 Defaulting to unpruned grid for atomic number  50.
 Defaulting to unpruned grid for atomic number  50.
 Defaulting to unpruned grid for atomic number  50.
 Defaulting to unpruned grid for atomic number  50.
 Defaulting to unpruned grid for atomic number  50.
 Defaulting to unpruned grid for atomic number  50.
 Defaulting to unpruned grid for atomic number  50.
 Defaulting to unpruned grid for atomic number  50.
 Defaulting to unpruned grid for atomic number  50.
 Defaulting to unpruned grid for atomic number  50.
 E= -1723.96611247031    
 DIIS: error= 6.96D-02 at cycle   1 NSaved=   1.
 NSaved= 1 IEnMin= 1 EnMin= -1723.96611247031     IErMin= 1 ErrMin= 6.96D-02
 ErrMax= 6.96D-02  0.00D+00 EMaxC= 1.00D-01 BMatC= 1.18D+00 BMatP= 1.18D+00
 IDIUse=3 WtCom= 3.04D-01 WtEn= 6.96D-01
 Coeff-Com:  0.100D+01
 Coeff-En:   0.100D+01
 Coeff:      0.100D+01
 Gap=     0.081 Goal=   None    Shift=    0.000
 GapD=    0.081 DampG=0.500 DampE=0.500 DampFc=0.2500 IDamp=-1.
 Damping current iteration by 2.50D-01
 RMSDP=6.44D-03 MaxDP=3.18D-01              OVMax= 2.98D-01

 Cycle   2  Pass 0  IDiag  1:
 RMSU=  1.57D-03    CP:  9.83D-01
 E= -1724.52410818624     Delta-E=       -0.557995715930 Rises=F Damp=T
 DIIS: error= 2.99D-02 at cycle   2 NSaved=   2.
 NSaved= 2 IEnMin= 2 EnMin= -1724.52410818624     IErMin= 2 ErrMin= 2.99D-02
 ErrMax= 2.99D-02  0.00D+00 EMaxC= 1.00D-01 BMatC= 2.48D-01 BMatP= 1.18D+00
 IDIUse=3 WtCom= 7.01D-01 WtEn= 2.99D-01
 Coeff-Com: -0.774D+00 0.177D+01
 Coeff-En:   0.000D+00 0.100D+01
 Coeff:     -0.543D+00 0.154D+01
 Gap=     0.141 Goal=   None    Shift=    0.000
 RMSDP=2.08D-03 MaxDP=1.23D-01 DE=-5.58D-01 OVMax= 1.81D-01

 Cycle   3  Pass 0  IDiag  1:
 RMSU=  1.36D-03    CP:  9.65D-01  1.96D+00
 E= -1725.38242391335     Delta-E=       -0.858315727110 Rises=F Damp=F
 DIIS: error= 1.37D-02 at cycle   3 NSaved=   3.
 NSaved= 3 IEnMin= 3 EnMin= -1725.38242391335     IErMin= 3 ErrMin= 1.37D-02
 ErrMax= 1.37D-02  0.00D+00 EMaxC= 1.00D-01 BMatC= 4.14D-02 BMatP= 2.48D-01
 IDIUse=3 WtCom= 8.63D-01 WtEn= 1.37D-01
 Coeff-Com: -0.930D-01 0.446D+00 0.647D+00
 Coeff-En:   0.000D+00 0.000D+00 0.100D+01
 Coeff:     -0.803D-01 0.385D+00 0.695D+00
 Gap=     0.144 Goal=   None    Shift=    0.000
 RMSDP=7.47D-04 MaxDP=4.94D-02 DE=-8.58D-01 OVMax= 5.70D-02

 Cycle   4  Pass 0  IDiag  1:
 RMSU=  5.67D-04    CP:  9.72D-01  1.69D+00  8.72D-01
 E= -1725.42127639960     Delta-E=       -0.038852486257 Rises=F Damp=F
 DIIS: error= 7.02D-03 at cycle   4 NSaved=   4.
 NSaved= 4 IEnMin= 4 EnMin= -1725.42127639960     IErMin= 4 ErrMin= 7.02D-03
 ErrMax= 7.02D-03  0.00D+00 EMaxC= 1.00D-01 BMatC= 1.03D-02 BMatP= 4.14D-02
 IDIUse=3 WtCom= 9.30D-01 WtEn= 7.02D-02
 Coeff-Com:  0.986D-01-0.779D-01 0.463D+00 0.517D+00
 Coeff-En:   0.000D+00 0.000D+00 0.139D+00 0.861D+00
 Coeff:      0.916D-01-0.724D-01 0.440D+00 0.541D+00
 Gap=     0.141 Goal=   None    Shift=    0.000
 RMSDP=4.00D-04 MaxDP=3.61D-02 DE=-3.89D-02 OVMax= 4.57D-02

 Cycle   5  Pass 0  IDiag  1:
 RMSU=  1.70D-04    CP:  9.70D-01  1.71D+00  9.17D-01  3.76D-01
 E= -1725.43102559985     Delta-E=       -0.009749200245 Rises=F Damp=F
 DIIS: error= 3.51D-03 at cycle   5 NSaved=   5.
 NSaved= 5 IEnMin= 5 EnMin= -1725.43102559985     IErMin= 5 ErrMin= 3.51D-03
 ErrMax= 3.51D-03  0.00D+00 EMaxC= 1.00D-01 BMatC= 1.38D-03 BMatP= 1.03D-02
 IDIUse=3 WtCom= 9.65D-01 WtEn= 3.51D-02
 Coeff-Com:  0.650D-01-0.703D-01 0.253D+00 0.361D+00 0.391D+00
 Coeff-En:   0.000D+00 0.000D+00 0.000D+00 0.112D+00 0.888D+00
 Coeff:      0.627D-01-0.679D-01 0.244D+00 0.353D+00 0.408D+00
 Gap=     0.142 Goal=   None    Shift=    0.000
 RMSDP=1.32D-04 MaxDP=1.18D-02 DE=-9.75D-03 OVMax= 1.77D-02

 Cycle   6  Pass 0  IDiag  1:
 RMSU=  5.07D-05    CP:  9.70D-01  1.71D+00  9.17D-01  5.34D-01  5.07D-01
 E= -1725.43256358628     Delta-E=       -0.001537986436 Rises=F Damp=F
 DIIS: error= 7.32D-04 at cycle   6 NSaved=   6.
 NSaved= 6 IEnMin= 6 EnMin= -1725.43256358628     IErMin= 6 ErrMin= 7.32D-04
 ErrMax= 7.32D-04  0.00D+00 EMaxC= 1.00D-01 BMatC= 7.09D-05 BMatP= 1.38D-03
 IDIUse=3 WtCom= 9.93D-01 WtEn= 7.32D-03
 Coeff-Com:  0.235D-01-0.298D-01 0.745D-01 0.122D+00 0.229D+00 0.580D+00
 Coeff-En:   0.000D+00 0.000D+00 0.000D+00 0.000D+00 0.242D-02 0.998D+00
 Coeff:      0.233D-01-0.296D-01 0.740D-01 0.121D+00 0.228D+00 0.583D+00
 Gap=     0.142 Goal=   None    Shift=    0.000
 RMSDP=3.30D-05 MaxDP=2.32D-03 DE=-1.54D-03 OVMax= 3.39D-03

 Cycle   7  Pass 0  IDiag  1:
 RMSU=  2.09D-05    CP:  9.70D-01  1.71D+00  9.25D-01  5.13D-01  5.57D-01
                    CP:  6.40D-01
 E= -1725.43263302749     Delta-E=       -0.000069441207 Rises=F Damp=F
 DIIS: error= 1.67D-04 at cycle   7 NSaved=   7.
 NSaved= 7 IEnMin= 7 EnMin= -1725.43263302749     IErMin= 7 ErrMin= 1.67D-04
 ErrMax= 1.67D-04  0.00D+00 EMaxC= 1.00D-01 BMatC= 6.53D-06 BMatP= 7.09D-05
 IDIUse=3 WtCom= 9.98D-01 WtEn= 1.67D-03
 Coeff-Com:  0.369D-02-0.529D-02 0.847D-02 0.194D-01 0.709D-01 0.319D+00
 Coeff-Com:  0.584D+00
 Coeff-En:   0.000D+00 0.000D+00 0.000D+00 0.000D+00 0.000D+00 0.652D-01
 Coeff-En:   0.935D+00
 Coeff:      0.369D-02-0.528D-02 0.845D-02 0.194D-01 0.707D-01 0.319D+00
 Coeff:      0.584D+00
 Gap=     0.142 Goal=   None    Shift=    0.000
 RMSDP=9.77D-06 MaxDP=1.07D-03 DE=-6.94D-05 OVMax= 1.12D-03

 Cycle   8  Pass 0  IDiag  1:
 RMSU=  6.44D-06    CP:  9.70D-01  1.71D+00  9.24D-01  5.15D-01  5.48D-01
                    CP:  6.96D-01  6.92D-01
 E= -1725.43263948877     Delta-E=       -0.000006461280 Rises=F Damp=F
 DIIS: error= 5.91D-05 at cycle   8 NSaved=   8.
 NSaved= 8 IEnMin= 8 EnMin= -1725.43263948877     IErMin= 8 ErrMin= 5.91D-05
 ErrMax= 5.91D-05  0.00D+00 EMaxC= 1.00D-01 BMatC= 8.40D-07 BMatP= 6.53D-06
 IDIUse=1 WtCom= 1.00D+00 WtEn= 0.00D+00
 Coeff-Com:  0.841D-03-0.141D-02 0.686D-03 0.431D-02 0.289D-01 0.157D+00
 Coeff-Com:  0.360D+00 0.449D+00
 Coeff:      0.841D-03-0.141D-02 0.686D-03 0.431D-02 0.289D-01 0.157D+00
 Coeff:      0.360D+00 0.449D+00
 Gap=     0.142 Goal=   None    Shift=    0.000
 RMSDP=3.35D-06 MaxDP=3.52D-04 DE=-6.46D-06 OVMax= 4.45D-04

 Initial convergence to 1.0D-05 achieved.  Increase integral accuracy.
 Cycle   9  Pass 1  IDiag  1:
 E= -1725.43240141565     Delta-E=        0.000238073119 Rises=F Damp=F
 DIIS: error= 3.64D-04 at cycle   1 NSaved=   1.
 NSaved= 1 IEnMin= 1 EnMin= -1725.43240141565     IErMin= 1 ErrMin= 3.64D-04
 ErrMax= 3.64D-04  0.00D+00 EMaxC= 1.00D-01 BMatC= 1.18D-05 BMatP= 1.18D-05
 IDIUse=3 WtCom= 9.96D-01 WtEn= 3.64D-03
 Coeff-Com:  0.100D+01
 Coeff-En:   0.100D+01
 Coeff:      0.100D+01
 Gap=     0.142 Goal=   None    Shift=    0.000
 RMSDP=3.35D-06 MaxDP=3.52D-04 DE= 2.38D-04 OVMax= 7.35D-04

 Cycle  10  Pass 1  IDiag  1:
 RMSU=  1.19D-04    CP:  1.00D+00
 E= -1725.43241781830     Delta-E=       -0.000016402650 Rises=F Damp=F
 DIIS: error= 4.18D-05 at cycle   2 NSaved=   2.
 NSaved= 2 IEnMin= 2 EnMin= -1725.43241781830     IErMin= 2 ErrMin= 4.18D-05
 ErrMax= 4.18D-05  0.00D+00 EMaxC= 1.00D-01 BMatC= 2.38D-07 BMatP= 1.18D-05
 IDIUse=1 WtCom= 1.00D+00 WtEn= 0.00D+00
 Coeff-Com:  0.183D-01 0.982D+00
 Coeff:      0.183D-01 0.982D+00
 Gap=     0.142 Goal=   None    Shift=    0.000
 RMSDP=4.92D-06 MaxDP=4.31D-04 DE=-1.64D-05 OVMax= 7.82D-04

 Cycle  11  Pass 1  IDiag  1:
 RMSU=  4.56D-06    CP:  1.00D+00  1.02D+00
 E= -1725.43241686596     Delta-E=        0.000000952343 Rises=F Damp=F
 DIIS: error= 9.39D-05 at cycle   3 NSaved=   3.
 NSaved= 3 IEnMin= 2 EnMin= -1725.43241781830     IErMin= 2 ErrMin= 4.18D-05
 ErrMax= 9.39D-05  0.00D+00 EMaxC= 1.00D-01 BMatC= 1.02D-06 BMatP= 2.38D-07
 IDIUse=1 WtCom= 1.00D+00 WtEn= 0.00D+00
 Coeff-Com: -0.719D-02 0.680D+00 0.327D+00
 Coeff:     -0.719D-02 0.680D+00 0.327D+00
 Gap=     0.142 Goal=   None    Shift=    0.000
 RMSDP=3.13D-06 MaxDP=2.96D-04 DE= 9.52D-07 OVMax= 5.62D-04

 Cycle  12  Pass 1  IDiag  1:
 RMSU=  6.05D-07    CP:  1.00D+00  1.02D+00  3.25D-01
 E= -1725.43241810059     Delta-E=       -0.000001234627 Rises=F Damp=F
 DIIS: error= 5.15D-06 at cycle   4 NSaved=   4.
 NSaved= 4 IEnMin= 4 EnMin= -1725.43241810059     IErMin= 4 ErrMin= 5.15D-06
 ErrMax= 5.15D-06  0.00D+00 EMaxC= 1.00D-01 BMatC= 4.52D-09 BMatP= 2.38D-07
 IDIUse=1 WtCom= 1.00D+00 WtEn= 0.00D+00
 Coeff-Com: -0.423D-02 0.373D+00 0.186D+00 0.445D+00
 Coeff:     -0.423D-02 0.373D+00 0.186D+00 0.445D+00
 Gap=     0.142 Goal=   None    Shift=    0.000
 RMSDP=2.43D-07 MaxDP=1.39D-05 DE=-1.23D-06 OVMax= 3.12D-05

 Cycle  13  Pass 1  IDiag  1:
 RMSU=  1.92D-07    CP:  1.00D+00  1.02D+00  3.40D-01  7.80D-01
 E= -1725.43241810541     Delta-E=       -0.000000004827 Rises=F Damp=F
 DIIS: error= 1.07D-06 at cycle   5 NSaved=   5.
 NSaved= 5 IEnMin= 5 EnMin= -1725.43241810541     IErMin= 5 ErrMin= 1.07D-06
 ErrMax= 1.07D-06  0.00D+00 EMaxC= 1.00D-01 BMatC= 2.27D-10 BMatP= 4.52D-09
 IDIUse=1 WtCom= 1.00D+00 WtEn= 0.00D+00
 Coeff-Com: -0.143D-02 0.121D+00 0.616D-01 0.224D+00 0.595D+00
 Coeff:     -0.143D-02 0.121D+00 0.616D-01 0.224D+00 0.595D+00
 Gap=     0.142 Goal=   None    Shift=    0.000
 RMSDP=7.63D-08 MaxDP=4.62D-06 DE=-4.83D-09 OVMax= 8.29D-06

 Cycle  14  Pass 1  IDiag  1:
 RMSU=  6.59D-08    CP:  1.00D+00  1.02D+00  3.38D-01  7.97D-01  8.14D-01
 E= -1725.43241810560     Delta-E=       -0.000000000193 Rises=F Damp=F
 DIIS: error= 6.00D-07 at cycle   6 NSaved=   6.
 NSaved= 6 IEnMin= 6 EnMin= -1725.43241810560     IErMin= 6 ErrMin= 6.00D-07
 ErrMax= 6.00D-07  0.00D+00 EMaxC= 1.00D-01 BMatC= 5.76D-11 BMatP= 2.27D-10
 IDIUse=1 WtCom= 1.00D+00 WtEn= 0.00D+00
 Coeff-Com: -0.227D-03 0.170D-01 0.925D-02 0.696D-01 0.375D+00 0.529D+00
 Coeff:     -0.227D-03 0.170D-01 0.925D-02 0.696D-01 0.375D+00 0.529D+00
 Gap=     0.142 Goal=   None    Shift=    0.000
 RMSDP=3.09D-08 MaxDP=2.17D-06 DE=-1.93D-10 OVMax= 3.56D-06

 Cycle  15  Pass 1  IDiag  1:
 RMSU=  2.07D-08    CP:  1.00D+00  1.02D+00  3.39D-01  7.95D-01  8.64D-01
                    CP:  6.91D-01
 E= -1725.43241810567     Delta-E=       -0.000000000067 Rises=F Damp=F
[...]
                 (A) (A) (A) (A) (A) (A) (A) (A) (A) (A) (A) (A)
                 (A) (A) (A) (A) (A) (A) (A) (A) (A) (A) (A) (A)
                 (A) (A) (A) (A) (A) (A) (A) (A) (A) (A) (A) (A)
                 (A) (A) (A) (A) (A) (A) (A) (A) (A) (A) (A) (A)
                 (A) (A) (A) (A) (A) (A) (A) (A) (A) (A) (A) (A)
                 (A) (A) (A) (A) (A) (A) (A) (A) (A) (A) (A) (A)
                 (A) (A) (A) (A) (A) (A) (A) (A) (A) (A) (A) (A)
                 (A) (A) (A) (A) (A) (A) (A)
       Virtual   (A) (A) (A) (A) (A) (A) (A) (A) (A) (A) (A) (A)
                 (A) (A) (A) (A) (A) (A) (A) (A) (A) (A) (A) (A)
                 (A) (A) (A) (A) (A) (A) (A) (A) (A) (A) (A) (A)
                 (A) (A) (A) (A) (A) (A) (A) (A) (A) (A) (A) (A)
                 (A) (A) (A) (A) (A) (A) (A) (A) (A) (A) (A) (A)
                 (A) (A) (A) (A) (A) (A) (A) (A) (A) (A) (A) (A)
                 (A) (A) (A) (A) (A) (A) (A) (A) (A) (A) (A) (A)
                 (A) (A) (A) (A) (A) (A) (A) (A) (A) (A) (A) (A)
                 (A) (A) (A) (A) (A) (A) (A) (A) (A) (A) (A) (A)
                 (A) (A) (A) (A) (A) (A) (A) (A) (A) (A) (A) (A)
                 (A) (A) (A) (A) (A) (A) (A) (A) (A) (A) (A) (A)
                 (A) (A) (A) (A) (A) (A) (A) (A) (A) (A) (A) (A)
                 (A) (A) (A) (A) (A) (A) (A) (A) (A) (A) (A) (A)
                 (A) (A) (A) (A) (A) (A) (A) (A) (A) (A) (A) (A)
                 (A) (A) (A) (A) (A) (A) (A) (A) (A) (A) (A) (A)
                 (A) (A) (A) (A) (A) (A) (A) (A) (A) (A) (A) (A)
                 (A) (A) (A) (A) (A) (A) (A) (A) (A) (A) (A) (A)
                 (A) (A) (A) (A) (A) (A) (A) (A) (A) (A) (A) (A)
                 (A) (A) (A) (A) (A) (A) (A) (A) (A) (A) (A) (A)
                 (A) (A) (A) (A) (A) (A) (A) (A) (A) (A) (A) (A)
                 (A) (A) (A) (A) (A) (A) (A) (A) (A) (A) (A) (A)
                 (A) (A) (A) (A) (A) (A) (A) (A) (A) (A) (A) (A)
                 (A) (A) (A) (A) (A) (A) (A) (A) (A) (A) (A) (A)
                 (A) (A) (A) (A) (A) (A) (A) (A) (A) (A) (A) (A)
                 (A) (A) (A) (A) (A) (A) (A) (A) (A) (A) (A) (A)
                 (A) (A) (A) (A) (A)
 The electronic state is 1-A.
 Alpha  occ. eigenvalues --  -19.16501 -19.16501 -19.14348 -19.14348 -19.13984
 Alpha  occ. eigenvalues --  -19.13984 -19.13771 -19.13771 -10.25216 -10.25215
 Alpha  occ. eigenvalues --  -10.24855 -10.24855 -10.24116 -10.24116 -10.23852
 Alpha  occ. eigenvalues --  -10.23852 -10.23732 -10.23732 -10.23537 -10.23537
 Alpha  occ. eigenvalues --  -10.23495 -10.23495 -10.23144 -10.23144 -10.22137
 Alpha  occ. eigenvalues --  -10.22100 -10.19673 -10.19672 -10.19610 -10.19610
 Alpha  occ. eigenvalues --  -10.16321 -10.16321 -10.15948 -10.15947 -10.15947
 Alpha  occ. eigenvalues --  -10.15947  -1.05687  -1.05625  -1.03082  -1.03080
 Alpha  occ. eigenvalues --   -1.02359  -1.02358  -1.01575  -1.01575  -0.87497
 Alpha  occ. eigenvalues --   -0.85589  -0.79047  -0.78963  -0.76713  -0.76614
 Alpha  occ. eigenvalues --   -0.75475  -0.73082  -0.72681  -0.71273  -0.70237
 Alpha  occ. eigenvalues --   -0.69696  -0.69340  -0.68279  -0.67559  -0.67554
 Alpha  occ. eigenvalues --   -0.67275  -0.67275  -0.66787  -0.66464  -0.62518
 Alpha  occ. eigenvalues --   -0.62284  -0.61036  -0.61031  -0.60652  -0.60640
 Alpha  occ. eigenvalues --   -0.58513  -0.56058  -0.54188  -0.53729  -0.52828
 Alpha  occ. eigenvalues --   -0.50718  -0.50708  -0.50203  -0.50128  -0.49511
 Alpha  occ. eigenvalues --   -0.49495  -0.47636  -0.47605  -0.47579  -0.47222
 Alpha  occ. eigenvalues --   -0.47096  -0.46242  -0.46191  -0.45340  -0.45095
 Alpha  occ. eigenvalues --   -0.44233  -0.44131  -0.44079  -0.43921  -0.43779
 Alpha  occ. eigenvalues --   -0.43676  -0.42328  -0.42327  -0.42315  -0.41875
 Alpha  occ. eigenvalues --   -0.40754  -0.40537  -0.40204  -0.40188  -0.40036
 Alpha  occ. eigenvalues --   -0.39843  -0.39739  -0.39735  -0.39722  -0.39291
 Alpha  occ. eigenvalues --   -0.39224  -0.39155  -0.39105  -0.38905  -0.38740
 Alpha  occ. eigenvalues --   -0.38740  -0.38380  -0.37913  -0.36664  -0.36253
 Alpha  occ. eigenvalues --   -0.36215  -0.36152  -0.35779  -0.35133  -0.33881
 Alpha  occ. eigenvalues --   -0.33167  -0.32148  -0.32099  -0.31796  -0.31575
 Alpha  occ. eigenvalues --   -0.31566  -0.31495  -0.31146  -0.31081  -0.31081
 Alpha  occ. eigenvalues --   -0.29092  -0.28922  -0.28545  -0.28258  -0.28195
 Alpha  occ. eigenvalues --   -0.27960  -0.26351  -0.26345  -0.26199  -0.25812
 Alpha  occ. eigenvalues --   -0.25809  -0.25225  -0.25224  -0.23204  -0.22980
 Alpha  occ. eigenvalues --   -0.17863
 Alpha virt. eigenvalues --   -0.04442   0.00779   0.01703   0.02537   0.04742
 Alpha virt. eigenvalues --    0.05069   0.05111   0.05285   0.05727   0.05745
 Alpha virt. eigenvalues --    0.05993   0.07228   0.07259   0.07752   0.07759
 Alpha virt. eigenvalues --    0.07893   0.08900   0.09026   0.11058   0.11144
 Alpha virt. eigenvalues --    0.11178   0.11476   0.11672   0.11887   0.12170
 Alpha virt. eigenvalues --    0.12283   0.12633   0.13179   0.13557   0.13674
 Alpha virt. eigenvalues --    0.13870   0.13979   0.14871   0.14929   0.14947
 Alpha virt. eigenvalues --    0.14956   0.15217   0.15800   0.15815   0.15923
 Alpha virt. eigenvalues --    0.16700   0.16924   0.17335   0.17411   0.17562
 Alpha virt. eigenvalues --    0.17668   0.17800   0.18046   0.18785   0.18805
 Alpha virt. eigenvalues --    0.19314   0.19315   0.19528   0.19626   0.19839
 Alpha virt. eigenvalues --    0.19840   0.19942   0.20282   0.20435   0.20466
 Alpha virt. eigenvalues --    0.20596   0.20599   0.20600   0.20833   0.21202
 Alpha virt. eigenvalues --    0.21203   0.22008   0.22300   0.22536   0.22986
 Alpha virt. eigenvalues --    0.23003   0.23326   0.23391   0.23588   0.23591
 Alpha virt. eigenvalues --    0.23901   0.24043   0.24749   0.25468   0.25520
 Alpha virt. eigenvalues --    0.25531   0.26010   0.26013   0.26185   0.26484
 Alpha virt. eigenvalues --    0.26484   0.26490   0.26596   0.26944   0.27056
 Alpha virt. eigenvalues --    0.27061   0.27895   0.27910   0.27926   0.27954
 Alpha virt. eigenvalues --    0.28174   0.28656   0.28687   0.28732   0.28923
 Alpha virt. eigenvalues --    0.29115   0.29121   0.29264   0.29303   0.29396
 Alpha virt. eigenvalues --    0.29572   0.30897   0.30940   0.30949   0.30953
 Alpha virt. eigenvalues --    0.31037   0.32221   0.32670   0.33875   0.34086
 Alpha virt. eigenvalues --    0.34373   0.34401   0.34736   0.34868   0.34971
 Alpha virt. eigenvalues --    0.35212   0.35954   0.35987   0.36414   0.36547
 Alpha virt. eigenvalues --    0.37053   0.37126   0.37416   0.37549   0.37965
 Alpha virt. eigenvalues --    0.38196   0.38433   0.38856   0.39007   0.39058
 Alpha virt. eigenvalues --    0.39412   0.39990   0.40077   0.40253   0.40365
 Alpha virt. eigenvalues --    0.40468   0.40506   0.40632   0.42520   0.42606
 Alpha virt. eigenvalues --    0.44095   0.44385   0.45232   0.45494   0.45723
 Alpha virt. eigenvalues --    0.46160   0.46188   0.46234   0.47218   0.48577
 Alpha virt. eigenvalues --    0.48698   0.49029   0.50408   0.50587   0.51136
 Alpha virt. eigenvalues --    0.51377   0.51576   0.51650   0.51849   0.52267
 Alpha virt. eigenvalues --    0.52404   0.53115   0.53138   0.53262   0.53676
 Alpha virt. eigenvalues --    0.54513   0.55310   0.55528   0.57036   0.57248
 Alpha virt. eigenvalues --    0.57605   0.58935   0.60045   0.60497   0.61028
 Alpha virt. eigenvalues --    0.61128   0.61904   0.63819   0.66043   0.67638
 Alpha virt. eigenvalues --    0.69219   0.70800   0.73024   0.74136   0.76055
 Alpha virt. eigenvalues --    0.77833   0.80663   0.80765   0.83535   0.84652
 Alpha virt. eigenvalues --    0.84935   0.85553   0.85869   0.86987   0.88131
 Alpha virt. eigenvalues --    0.88819   0.89132   0.90930   0.91573   0.91640
 Alpha virt. eigenvalues --    0.91938   0.92486   0.95702   0.96361   0.97249
 Alpha virt. eigenvalues --    0.98473   0.98660   0.99428   0.99547   0.99959
 Alpha virt. eigenvalues --    1.00033   1.00165   1.00275   1.01156   1.01338
 Alpha virt. eigenvalues --    1.01568   1.03955   1.03979   1.04006   1.04040
 Alpha virt. eigenvalues --    1.04905   1.06153   1.06193   1.06461   1.06538
 Alpha virt. eigenvalues --    1.07215   1.08620   1.08685   1.10205   1.10721
 Alpha virt. eigenvalues --    1.10727   1.11033   1.11035   1.12293   1.12306
 Alpha virt. eigenvalues --    1.12316   1.12365   1.12447   1.12478   1.12627
 Alpha virt. eigenvalues --    1.12842   1.12944   1.13251   1.13416   1.13492
 Alpha virt. eigenvalues --    1.15184   1.15187   1.15573   1.15907   1.16081
 Alpha virt. eigenvalues --    1.16271   1.17030   1.17050   1.17462   1.17468
 Alpha virt. eigenvalues --    1.17713   1.18472   1.19022   1.19032   1.19713
 Alpha virt. eigenvalues --    1.19810   1.20063   1.20102   1.21052   1.21450
 Alpha virt. eigenvalues --    1.22569   1.23213   1.24332   1.26287   1.26982
 Alpha virt. eigenvalues --    1.27753   1.29696   1.32364   1.34453   1.34730
 Alpha virt. eigenvalues --    1.36098   1.36350   1.37546   1.37850   1.43036
 Alpha virt. eigenvalues --    1.44762   1.45766   1.47206   1.51677   1.54019
 Alpha virt. eigenvalues --    1.57260   1.62890   1.64993   1.89983   1.89987
 Alpha virt. eigenvalues --    1.97244   1.97282   2.01651   2.01751   2.04867
 Alpha virt. eigenvalues --    2.05408  13.77648  13.84299  14.10212  15.42741
          Condensed to atoms (all electrons):
 Mulliken charges:
               1
     1  C   -0.241310
     2  C    0.348818
     3  C   -0.206588
     4  C   -0.572469
     5  S    0.234519
     6  O   -0.331463
     7  H    0.246557
     8  C   -0.241309
     9  C    0.348816
    10  C   -0.206583
    11  C   -0.572477
    12  S    0.234522
    13  O   -0.331462
    14  H    0.246557
    15  C   -0.230062
    16  H    0.204351
    17  H    0.204348
    18  C   -0.223171
    19  H    0.194719
    20  H    0.194718
    21  O   -0.335979
    22  C   -0.209282
    23  H    0.190487
    24  H    0.190487
    25  C   -0.209043
    26  H    0.189149
    27  H    0.189148
    28  O   -0.339198
    29  C   -0.200285
    30  H    0.190559
    31  H    0.190560
    32  C   -0.223617
    33  H    0.188359
    34  H    0.188359
    35  O   -0.325149
    36  C   -0.440806
    37  H    0.191160
    38  H    0.223302
    39  H    0.191160
    40  C   -0.230062
    41  H    0.204352
    42  H    0.204347
    43  C   -0.223172
    44  H    0.194719
    45  H    0.194718
    46  O   -0.335979
    47  C   -0.209282
    48  H    0.190487
    49  H    0.190487
    50  C   -0.209043
    51  H    0.189148
    52  H    0.189149
    53  O   -0.339198
    54  C   -0.200285
    55  H    0.190560
    56  H    0.190559
    57  C   -0.223617
    58  H    0.188359
    59  H    0.188359
    60  O   -0.325149
    61  C   -0.440806
    62  H    0.191160
    63  H    0.223302
    64  H    0.191160
    65  Sn   1.198018
    66  C   -0.986179
    67  H    0.230850
    68  H    0.228933
    69  H    0.230857
    70  C   -0.967100
    71  H    0.231234
    72  H    0.231549
    73  H    0.221899
    74  C   -0.967078
    75  H    0.221899
    76  H    0.231562
    77  H    0.231217
    78  Sn   1.198017
    79  C   -0.967076
    80  H    0.231223
    81  H    0.221897
    82  H    0.231551
    83  C   -0.967097
    84  H    0.221899
    85  H    0.231223
    86  H    0.231558
    87  C   -0.986176
    88  H    0.230859
    89  H    0.230849
    90  H    0.228930
 Sum of Mulliken charges =  -0.00000
 Mulliken charges with hydrogens summed into heavy atoms:
               1
     1  C   -0.241310
     2  C    0.348818
     3  C    0.039969
     4  C   -0.572469
     5  S    0.234519
     6  O   -0.331463
     8  C   -0.241309
     9  C    0.348816
    10  C    0.039974
    11  C   -0.572477
    12  S    0.234522
    13  O   -0.331462
    15  C    0.178637
    18  C    0.166266
    21  O   -0.335979
    22  C    0.171692
    25  C    0.169254
    28  O   -0.339198
    29  C    0.180834
    32  C    0.153102
    35  O   -0.325149
    36  C    0.164817
    40  C    0.178637
    43  C    0.166265
    46  O   -0.335979
    47  C    0.171692
    50  C    0.169254
    53  O   -0.339198
    54  C    0.180834
    57  C    0.153102
    60  O   -0.325149
    61  C    0.164817
    65  Sn   1.198018
    66  C   -0.295539
    70  C   -0.282418
    74  C   -0.282400
    78  Sn   1.198017
    79  C   -0.282404
    83  C   -0.282416
    87  C   -0.295538
 Electronic spatial extent (au):  <R**2>=          68044.6479
 Charge=              0.0000 electrons
 Dipole moment (field-independent basis, Debye):
    X=              0.0000    Y=             -0.0002    Z=             -0.0004  Tot=              0.0004
 Quadrupole moment (field-independent basis, Debye-Ang):
   XX=           -228.9860   YY=           -252.4211   ZZ=           -279.3165
   XY=            -28.0369   XZ=             -0.0014   YZ=              0.0001
 Traceless Quadrupole moment (field-independent basis, Debye-Ang):
   XX=             24.5885   YY=              1.1534   ZZ=            -25.7420
   XY=            -28.0369   XZ=             -0.0014   YZ=              0.0001
 Octapole moment (field-independent basis, Debye-Ang**2):
  XXX=              0.0058  YYY=             -0.0184  ZZZ=              0.0079  XYY=             -0.0015
  XXY=              0.0005  XXZ=             -0.0549  XZZ=             -0.0002  YZZ=             -0.0018
  YYZ=             -0.0006  XYZ=              0.0065
 Hexadecapole moment (field-independent basis, Debye-Ang**3):
 XXXX=         -58614.7871 YYYY=         -16642.0162 ZZZZ=          -1071.2146 XXXY=          -6843.4328
 XXXZ=             -0.1464 YYYX=           -560.2561 YYYZ=              0.0368 ZZZX=             -0.0064
 ZZZY=             -0.0025 XXYY=         -15463.4863 XXZZ=         -12322.9979 YYZZ=          -3212.9549
 XXYZ=             -0.0446 YYXZ=             -0.0208 ZZXY=            -71.8340
 N-N= 3.796475861750D+03 E-N=-1.160581062556D+04  KE= 1.698588303882D+03
 No NMR shielding tensors so no spin-rotation constants.
 Leave Link  601 at Thu Jan 16 15:29:02 2020, MaxMem=  6710886400 cpu:               6.5 elap:               0.5
 (Enter /apps/gaussian/g16-a03/l9999.exe)
 1\1\GINC-CX1-141-15-4\FOpt\RB3LYP\LANL2DZ\C28H50O8S2Sn2\NS5018\16-Jan-
 2020\0\\#p opt b3lyp/lanl2dz\\3G_1m_0sc_Sn_opt_pop.gjf\\0,1\C,0.171515
 6245,0.6745091222,0.0238807166\C,1.4224556975,1.2880561054,0.046327075
 6\C,1.3988670564,2.7267399656,0.0539391985\C,0.1321590516,3.2864880125
 ,0.0376713651\S,-1.1156431063,1.9699128174,0.0113778703\O,2.5748869116
 ,0.5007246844,0.0594956711\H,2.3024230672,3.3265547349,0.0710481138\C,
 -0.1375446612,-0.7320499488,0.0113950277\C,-1.3884774747,-1.3456075666
 ,-0.0111141801\C,-1.3648804413,-2.7842920441,-0.0186997719\C,-0.098166
 1903,-3.3440275738,-0.0024460908\S,1.1496260592,-2.0274470913,0.023912
 6507\O,-2.5409131245,-0.5582819541,-0.0243929581\H,-2.2684320295,-3.38
 41142003,-0.0357956254\C,3.8725001484,1.1723195231,0.0830825051\H,3.96
 7233831,1.793276473,0.9842787511\H,3.9946209576,1.8033234141,-0.807780
 6031\C,4.9198417576,0.0646085785,0.0928669666\H,4.7935861035,-0.572533
 6579,0.9817225481\H,4.820845471,-0.5625432618,-0.8064858503\O,6.210997
 3047,0.7382707208,0.1163160619\C,7.3478904393,-0.1753863712,0.12853750
 27\H,7.3156521134,-0.8226688488,1.0187969172\H,7.3429087147,-0.8126741
 234,-0.7694687491\C,8.6019476766,0.6913442304,0.1524947577\H,8.6054955
 832,1.3294436907,1.0503215213\H,8.6327375321,1.3394447399,-0.737614333
 1\O,9.7372923807,-0.2217902069,0.164687446\C,11.0288622544,0.455382434
 4,0.1881328202\H,11.1211280514,1.0847720777,1.0871398686\H,11.14836336
 18,1.0947212452,-0.7005872528\C,12.0960139321,-0.6334164668,0.19832941
 04\H,12.0044751999,-1.2633455564,-0.7011912954\H,11.9772436082,-1.2732
 869809,1.0875913454\O,13.3816403131,0.0515908624,0.2217089142\C,14.518
 4214623,-0.8529023923,0.2339894857\H,14.5344843674,-1.4891759371,-0.66
 59141135\H,15.4139538716,-0.2260757868,0.2511067168\H,14.5071908733,-1
 .4991383043,1.1268397445\C,-3.8385198403,-1.2298904949,-0.0479280997\H
 ,-3.9606687709,-1.8607480024,0.8430353911\H,-3.9332155005,-1.850997541
 7,-0.9490244395\C,-4.8858688377,-0.1221882877,-0.0579499577\H,-4.78692
 43961,0.5051164994,0.8413016332\H,-4.7595692974,0.5148041033,-0.946906
 9941\O,-6.1770190411,-0.7958619907,-0.0813525891\C,-7.3139164987,0.117
 7872841,-0.0937959249\H,-7.3089835971,0.7552370539,0.804095583\H,-7.28
 16357086,0.7649090551,-0.9841705674\C,-8.5679678723,-0.7489542755,-0.1
 176590028\H,-8.5987940551,-1.3968995549,0.7725618345\H,-8.5714723431,-
 1.3872104551,-1.0153744879\O,-9.7033170795,0.1641719238,-0.130062434\C
 ,-10.9948821604,-0.5130118262,-0.1534503318\H,-11.114416498,-1.1522068
 928,0.7353686481\H,-11.0871070822,-1.1425481144,-1.0523589452\C,-12.06
 2039606,0.575779247,-0.1638675046\H,-11.9432392192,1.2155042085,-1.053
 2301121\H,-11.9705390578,1.2058567243,0.7355531369\O,-13.3476613266,-0
 .1092394764,-0.1871840735\C,-14.4844472687,0.7952452114,-0.1996524835\
 H,-14.473187002,1.4413379947,-1.0926059524\H,-15.3799753939,0.16841066
 6,-0.2167027558\H,-14.5005475486,1.4316629882,0.7001484478\Sn,-0.36896
 31741,5.3564782296,0.0412712931\C,1.4913632374,6.4186085335,0.07591131
 61\H,2.0961563339,6.1752090915,-0.8067384969\H,1.3130187953,7.50157287
 63,0.0790299993\H,2.0685482224,6.165539347,0.9741891597\C,-1.541374945
 4,5.798618898,1.778594736\H,-2.4720459831,5.2172804671,1.7734745287\H,
 -0.9862721019,5.5471681569,2.6907532499\H,-1.8007007366,6.8648148351,1
 .8116945135\C,-1.4869315586,5.8178610169,-1.7266704573\H,-1.74367548,6
 .8847672922,-1.757002787\H,-0.9043757954,5.5746387798,-2.6238165348\H,
 -2.4181066197,5.2380547213,-1.7559974567\Sn,0.4029817426,-5.4140045058
 ,-0.0063161038\C,1.5743883244,-5.8561987326,-1.7443088538\H,2.50553754
 75,-5.2756299002,-1.739304526\H,1.8328261486,-6.9225935221,-1.77802575
 82\H,1.0190976358,-5.6038597524,-2.6561082184\C,1.5219916578,-5.875389
 9527,1.7609593479\H,1.7794779293,-6.9421305461,1.7907329577\H,2.452787
 0131,-5.2949590311,1.7901047956\H,0.9396877738,-5.6329275402,2.6584753
 558\C,-1.4572866943,-6.4762621307,-0.0399877724\H,-2.061588892,-6.2330
 923298,0.8430588818\H,-2.0350424689,-6.2231509571,-0.9378845091\H,-1.2
 787866598,-7.5592045505,-0.0433768288\\Version=ES64L-G16RevA.03\State=
 1-A\HF=-1725.4829933\RMSD=5.649e-09\RMSF=1.674e-06\Dipole=-0.0000037,0
 .0000875,-0.0001484\Quadrupole=16.8541035,2.2789417,-19.1330452,-21.38
 25474,0.4327114,-0.2085012\PG=C01 [X(C28H50O8S2Sn2)]\\@


 A ROPE OVER THE TOP OF A FENCE HAS THE SAME LENGTH ON EACH SIDE.
 WEIGHS 1/3 POUND PER FOOT.  ON ONE END HANGS A MONKEY HOLDING A
 BANANA, AND ON THE OTHER END A WEIGHT EQUAL TO THE WEIGHT
 OF THE MONKEY.  THE BANANA WEIGHS TWO OUNCES PER INCH.
 THE ROPE IS AS LONG AS THE AGE OF THE MONKEY, 
 AND THE WEIGHT OF THE MONKEY (IN OUNCES) IS AS MUCH
 AS THE AGE OF THE MONKEY'S MOTHER.  THE COMBINED AGES OF MONKEY
 AND MOTHER ARE THIRTY YEARS.  HALF THE WEIGHT OF THE MONKEY,
  PLUS THE WEIGHT OF THE BANANA, IS ONE FOURTH AS MUCH AS THE WEIGHT
 OF THE WEIGHT AND THE ROPE.
 THE MONKEY'S MOTHER IS HALF AS OLD AS THE MONKEY WILL BE
 WHEN IT IS 3 TIMES AS OLD AS ITS MOTHER WAS WHEN
 SHE WAS HALF AS OLD AS THE MONKEY WILL BE WHEN IT IS
 AS OLD AS ITS MOTHER WILL BE WHEN SHE IS 4 TIMES AS
 OLD AS THE MONKEY WAS WHEN IT WAS TWICE AS OLD AS 
 ITS MOTHER WAS WHEN SHE WAS ONE THIRD AS OLD AS THE
 MONKEY WAS WHEN IT WAS AS OLD AS ITS MOTHER WAS WHEN 
 SHE WAS 3 TIMES AS OLD AS THE MONKEY WAS WHEN IT WAS AS OLD AS ITS
 MOTHER WAS WHEN SHE WAS 3 TIMES AS OLD AS THE MONKEY 
 WAS WHEN IT WAS ONE FOURTH WAS OLD AS IT IS NOW.

 HOW LONG IS THE BANANA?
 Job cpu time:       0 days 21 hours 20 minutes 13.4 seconds.
 Elapsed time:       0 days  1 hours 20 minutes 29.6 seconds.
 File lengths (MBytes):  RWF=    138 Int=      0 D2E=      0 Chk=     21 Scr=      1
 Normal termination of Gaussian 16 at Thu Jan 16 15:29:03 2020.
