 Entering Gaussian System, Link 0=g16
 Input=O3G_1m_0sc_Br_opt.gjf
 Output=O3G_1m_0sc_Br_opt.log
 Initial command:
 /apps/gaussian/g16-a03/l1.exe "/tmp/pbs.966793.pbs/Gau-40790.inp" -scrdir="/tmp/pbs.966793.pbs/"
 Entering Link 1 = /apps/gaussian/g16-a03/l1.exe PID=     40791.
  
 Copyright (c) 1988,1990,1992,1993,1995,1998,2003,2009,2016,
            Gaussian, Inc.  All Rights Reserved.
  
 This is part of the Gaussian(R) 16 program.  It is based on
 the Gaussian(R) 09 system (copyright 2009, Gaussian, Inc.),
 the Gaussian(R) 03 system (copyright 2003, Gaussian, Inc.),
 the Gaussian(R) 98 system (copyright 1998, Gaussian, Inc.),
 the Gaussian(R) 94 system (copyright 1995, Gaussian, Inc.),
 the Gaussian 92(TM) system (copyright 1992, Gaussian, Inc.),
 the Gaussian 90(TM) system (copyright 1990, Gaussian, Inc.),
 the Gaussian 88(TM) system (copyright 1988, Gaussian, Inc.),
 the Gaussian 86(TM) system (copyright 1986, Carnegie Mellon
 University), and the Gaussian 82(TM) system (copyright 1983,
 Carnegie Mellon University). Gaussian is a federally registered
 trademark of Gaussian, Inc.
  
 This software contains proprietary and confidential information,
 including trade secrets, belonging to Gaussian, Inc.
  
 This software is provided under written license and may be
 used, copied, transmitted, or stored only in accord with that
 written license.
  
 The following legend is applicable only to US Government
 contracts under FAR:
  
                    RESTRICTED RIGHTS LEGEND
  
 Use, reproduction and disclosure by the US Government is
 subject to restrictions as set forth in subparagraphs (a)
 and (c) of the Commercial Computer Software - Restricted
 Rights clause in FAR 52.227-19.
  
 Gaussian, Inc.
 340 Quinnipiac St., Bldg. 40, Wallingford CT 06492
  
  
 ---------------------------------------------------------------
 Warning -- This program may not be used in any manner that
 competes with the business of Gaussian, Inc. or will provide
 assistance to any competitor of Gaussian, Inc.  The licensee
 of this program is prohibited from giving any competitor of
 Gaussian, Inc. access to this program.  By using this program,
 the user acknowledges that Gaussian, Inc. is engaged in the
 business of creating and licensing software in the field of
 computational chemistry and represents and warrants to the
 licensee that it is not a competitor of Gaussian, Inc. and that
 it will not use this program in any manner prohibited above.
 ---------------------------------------------------------------
  

 Cite this work as:
 Gaussian 16, Revision A.03,
 M. J. Frisch, G. W. Trucks, H. B. Schlegel, G. E. Scuseria, 
 M. A. Robb, J. R. Cheeseman, G. Scalmani, V. Barone, 
 G. A. Petersson, H. Nakatsuji, X. Li, M. Caricato, A. V. Marenich, 
 J. Bloino, B. G. Janesko, R. Gomperts, B. Mennucci, H. P. Hratchian, 
 J. V. Ortiz, A. F. Izmaylov, J. L. Sonnenberg, D. Williams-Young, 
 F. Ding, F. Lipparini, F. Egidi, J. Goings, B. Peng, A. Petrone, 
 T. Henderson, D. Ranasinghe, V. G. Zakrzewski, J. Gao, N. Rega, 
 G. Zheng, W. Liang, M. Hada, M. Ehara, K. Toyota, R. Fukuda, 
 J. Hasegawa, M. Ishida, T. Nakajima, Y. Honda, O. Kitao, H. Nakai, 
 T. Vreven, K. Throssell, J. A. Montgomery, Jr., J. E. Peralta, 
 F. Ogliaro, M. J. Bearpark, J. J. Heyd, E. N. Brothers, K. N. Kudin, 
 V. N. Staroverov, T. A. Keith, R. Kobayashi, J. Normand, 
 K. Raghavachari, A. P. Rendell, J. C. Burant, S. S. Iyengar, 
 J. Tomasi, M. Cossi, J. M. Millam, M. Klene, C. Adamo, R. Cammi, 
 J. W. Ochterski, R. L. Martin, K. Morokuma, O. Farkas, 
 J. B. Foresman, and D. J. Fox, Gaussian, Inc., Wallingford CT, 2016.
 
 ******************************************
 Gaussian 16:  ES64L-G16RevA.03 25-Dec-2016
                16-Jan-2020 
 ******************************************
 %mem=50GB
 %nprocshared=16
 Will use up to   16 processors via shared memory.
 ------------------------
 #p opt b3lyp/6-311g(d,p)
 ------------------------
 1/18=20,19=15,26=3,38=1/1,3;
 2/9=110,12=2,17=6,18=5,40=1/2;
 3/5=4,6=6,7=101,11=2,25=1,30=1,71=1,74=-5/1,2,3;
 4//1;
 5/5=2,38=5/2;
 6/7=2,8=2,9=2,10=2,28=1/1;
 7//1,2,3,16;
 1/18=20,19=15,26=3/3(2);
 2/9=110/2;
 99//99;
 2/9=110/2;
 3/5=4,6=6,7=101,11=2,25=1,30=1,71=1,74=-5/1,2,3;
 4/5=5,16=3,69=1/1;
 5/5=2,38=5/2;
 7//1,2,3,16;
 1/18=20,19=15,26=3/3(-5);
 2/9=110/2;
 6/7=2,8=2,9=2,10=2,19=2,28=1/1;
 99/9=1/99;
 Leave Link    1 at Thu Jan 16 14:07:50 2020, MaxMem=  6710886400 cpu:               1.0 elap:               0.1
 (Enter /apps/gaussian/g16-a03/l101.exe)
 ------------------------
 3G_1m_0sc_Br_opt_pop.gjf
 ------------------------
 Symbolic Z-matrix:
 Charge =  0 Multiplicity = 1
 C                     0.152     0.706    -0.001 
 C                     1.398     1.313    -0.001 
 C                     1.356     2.736    -0.001 
 C                     0.078     3.212    -0.001 
 S                    -1.096     1.945    -0.001 
 O                     2.523     0.542     0. 
 H                     2.229     3.372     0. 
 C                    -0.152    -0.706    -0.001 
 C                    -1.398    -1.313    -0.001 
 C                    -1.357    -2.736    -0.001 
 C                    -0.078    -3.212    -0.001 
 S                     1.096    -1.946     0. 
 O                    -2.523    -0.542    -0.001 
 H                    -2.229    -3.373    -0.001 
 C                     3.788     1.197     0. 
 H                     3.899     1.826     0.89 
 H                     3.899     1.826    -0.891 
 C                     4.85      0.113     0. 
 H                     4.735    -0.523     0.889 
 H                     4.735    -0.523    -0.889 
 O                     6.104     0.768     0. 
 C                     7.206    -0.122     0. 
 H                     7.189    -0.768     0.889 
 H                     7.189    -0.768    -0.889 
 C                     8.472     0.716     0. 
 H                     8.487     1.363     0.889 
 H                     8.488     1.363    -0.888 
 O                     9.571    -0.174     0. 
 C                     10.827    0.48      0.001 
 H                     10.938    1.117     0.889 
 H                     10.939    1.117    -0.888 
 C                     11.903   -0.591     0.001 
 H                     11.789   -1.229    -0.888 
 H                     11.789   -1.229     0.89 
 O                     13.155    0.064     0.001 
 C                     14.246   -0.833     0.001 
 H                     14.242   -1.476    -0.891 
 H                     15.157   -0.234     0.001 
 H                     14.242   -1.476     0.893 
 C                    -3.788    -1.198    -0.001 
 H                    -3.899    -1.826     0.89 
 H                    -3.899    -1.826    -0.891 
 C                    -4.85     -0.113     0. 
 H                    -4.735     0.522     0.889 
 H                    -4.735     0.522    -0.89 
 O                    -6.104    -0.768     0. 
 C                    -7.206     0.122     0. 
 H                    -7.189     0.769     0.889 
 H                    -7.189     0.768    -0.889 
 C                    -8.472    -0.716     0. 
 H                    -8.488    -1.363     0.889 
 H                    -8.488    -1.363    -0.888 
 O                    -9.571     0.175     0. 
 C                    -10.827   -0.479     0.001 
 H                    -10.938   -1.116     0.89 
 H                    -10.939   -1.116    -0.888 
 C                    -11.902    0.592     0.001 
 H                    -11.789    1.23     -0.888 
 H                    -11.788    1.23      0.89 
 O                    -13.155   -0.063     0.001 
 C                    -14.246    0.834     0.001 
 H                    -14.242    1.477    -0.891 
 H                    -15.157    0.235     0.002 
 H                    -14.241    1.477     0.893 
 Br                   -0.15709   5.12763   0.00008 
 Br                    0.25293  -5.11342   0.00024 
 
 ITRead=  0  0  0  0  0  0  0  0  0  0  0  0  0  0  0  0  0  0  0  0
 ITRead=  0  0  0  0  0  0  0  0  0  0  0  0  0  0  0  0  0  0  0  0
 ITRead=  0  0  0  0  0  0  0  0  0  0  0  0  0  0  0  0  0  0  0  0
 ITRead=  0  0  0  0  0  0
 MicOpt= -1 -1 -1 -1 -1 -1 -1 -1 -1 -1 -1 -1 -1 -1 -1 -1 -1 -1 -1 -1
 MicOpt= -1 -1 -1 -1 -1 -1 -1 -1 -1 -1 -1 -1 -1 -1 -1 -1 -1 -1 -1 -1
 MicOpt= -1 -1 -1 -1 -1 -1 -1 -1 -1 -1 -1 -1 -1 -1 -1 -1 -1 -1 -1 -1
 MicOpt= -1 -1 -1 -1 -1 -1
 NAtoms=     66 NQM=       66 NQMF=       0 NMMI=      0 NMMIF=      0
                NMic=       0 NMicF=      0.
                    Isotopes and Nuclear Properties:
 (Nuclear quadrupole moments (NQMom) in fm**2, nuclear magnetic moments (NMagM)
  in nuclear magnetons)

  Atom         1           2           3           4           5           6           7           8           9          10
 IAtWgt=          12          12          12          12          32          16           1          12          12          12
 AtmWgt=  12.0000000  12.0000000  12.0000000  12.0000000  31.9720718  15.9949146   1.0078250  12.0000000  12.0000000  12.0000000
 NucSpn=           0           0           0           0           0           0           1           0           0           0
 AtZEff=  -0.0000000  -0.0000000  -0.0000000  -0.0000000  -0.0000000  -0.0000000  -0.0000000  -0.0000000  -0.0000000  -0.0000000
 NQMom=    0.0000000   0.0000000   0.0000000   0.0000000   0.0000000   0.0000000   0.0000000   0.0000000   0.0000000   0.0000000
 NMagM=    0.0000000   0.0000000   0.0000000   0.0000000   0.0000000   0.0000000   2.7928460   0.0000000   0.0000000   0.0000000
 AtZNuc=   6.0000000   6.0000000   6.0000000   6.0000000  16.0000000   8.0000000   1.0000000   6.0000000   6.0000000   6.0000000

  Atom        11          12          13          14          15          16          17          18          19          20
 IAtWgt=          12          32          16           1          12           1           1          12           1           1
 AtmWgt=  12.0000000  31.9720718  15.9949146   1.0078250  12.0000000   1.0078250   1.0078250  12.0000000   1.0078250   1.0078250
 NucSpn=           0           0           0           1           0           1           1           0           1           1
 AtZEff=  -0.0000000  -0.0000000  -0.0000000  -0.0000000  -0.0000000  -0.0000000  -0.0000000  -0.0000000  -0.0000000  -0.0000000
 NQMom=    0.0000000   0.0000000   0.0000000   0.0000000   0.0000000   0.0000000   0.0000000   0.0000000   0.0000000   0.0000000
 NMagM=    0.0000000   0.0000000   0.0000000   2.7928460   0.0000000   2.7928460   2.7928460   0.0000000   2.7928460   2.7928460
 AtZNuc=   6.0000000  16.0000000   8.0000000   1.0000000   6.0000000   1.0000000   1.0000000   6.0000000   1.0000000   1.0000000

  Atom        21          22          23          24          25          26          27          28          29          30
 IAtWgt=          16          12           1           1          12           1           1          16          12           1
 AtmWgt=  15.9949146  12.0000000   1.0078250   1.0078250  12.0000000   1.0078250   1.0078250  15.9949146  12.0000000   1.0078250
 NucSpn=           0           0           1           1           0           1           1           0           0           1
 AtZEff=  -0.0000000  -0.0000000  -0.0000000  -0.0000000  -0.0000000  -0.0000000  -0.0000000  -0.0000000  -0.0000000  -0.0000000
 NQMom=    0.0000000   0.0000000   0.0000000   0.0000000   0.0000000   0.0000000   0.0000000   0.0000000   0.0000000   0.0000000
 NMagM=    0.0000000   0.0000000   2.7928460   2.7928460   0.0000000   2.7928460   2.7928460   0.0000000   0.0000000   2.7928460
 AtZNuc=   8.0000000   6.0000000   1.0000000   1.0000000   6.0000000   1.0000000   1.0000000   8.0000000   6.0000000   1.0000000

  Atom        31          32          33          34          35          36          37          38          39          40
 IAtWgt=           1          12           1           1          16          12           1           1           1          12
 AtmWgt=   1.0078250  12.0000000   1.0078250   1.0078250  15.9949146  12.0000000   1.0078250   1.0078250   1.0078250  12.0000000
 NucSpn=           1           0           1           1           0           0           1           1           1           0
 AtZEff=  -0.0000000  -0.0000000  -0.0000000  -0.0000000  -0.0000000  -0.0000000  -0.0000000  -0.0000000  -0.0000000  -0.0000000
 NQMom=    0.0000000   0.0000000   0.0000000   0.0000000   0.0000000   0.0000000   0.0000000   0.0000000   0.0000000   0.0000000
 NMagM=    2.7928460   0.0000000   2.7928460   2.7928460   0.0000000   0.0000000   2.7928460   2.7928460   2.7928460   0.0000000
 AtZNuc=   1.0000000   6.0000000   1.0000000   1.0000000   8.0000000   6.0000000   1.0000000   1.0000000   1.0000000   6.0000000

  Atom        41          42          43          44          45          46          47          48          49          50
 IAtWgt=           1           1          12           1           1          16          12           1           1          12
 AtmWgt=   1.0078250   1.0078250  12.0000000   1.0078250   1.0078250  15.9949146  12.0000000   1.0078250   1.0078250  12.0000000
 NucSpn=           1           1           0           1           1           0           0           1           1           0
 AtZEff=  -0.0000000  -0.0000000  -0.0000000  -0.0000000  -0.0000000  -0.0000000  -0.0000000  -0.0000000  -0.0000000  -0.0000000
 NQMom=    0.0000000   0.0000000   0.0000000   0.0000000   0.0000000   0.0000000   0.0000000   0.0000000   0.0000000   0.0000000
 NMagM=    2.7928460   2.7928460   0.0000000   2.7928460   2.7928460   0.0000000   0.0000000   2.7928460   2.7928460   0.0000000
 AtZNuc=   1.0000000   1.0000000   6.0000000   1.0000000   1.0000000   8.0000000   6.0000000   1.0000000   1.0000000   6.0000000

  Atom        51          52          53          54          55          56          57          58          59          60
 IAtWgt=           1           1          16          12           1           1          12           1           1          16
 AtmWgt=   1.0078250   1.0078250  15.9949146  12.0000000   1.0078250   1.0078250  12.0000000   1.0078250   1.0078250  15.9949146
 NucSpn=           1           1           0           0           1           1           0           1           1           0
 AtZEff=  -0.0000000  -0.0000000  -0.0000000  -0.0000000  -0.0000000  -0.0000000  -0.0000000  -0.0000000  -0.0000000  -0.0000000
 NQMom=    0.0000000   0.0000000   0.0000000   0.0000000   0.0000000   0.0000000   0.0000000   0.0000000   0.0000000   0.0000000
 NMagM=    2.7928460   2.7928460   0.0000000   0.0000000   2.7928460   2.7928460   0.0000000   2.7928460   2.7928460   0.0000000
 AtZNuc=   1.0000000   1.0000000   8.0000000   6.0000000   1.0000000   1.0000000   6.0000000   1.0000000   1.0000000   8.0000000

  Atom        61          62          63          64          65          66
 IAtWgt=          12           1           1           1          79          79
 AtmWgt=  12.0000000   1.0078250   1.0078250   1.0078250  78.9183361  78.9183361
 NucSpn=           0           1           1           1           3           3
 AtZEff=  -0.0000000  -0.0000000  -0.0000000  -0.0000000  -0.0000000  -0.0000000
 NQMom=    0.0000000   0.0000000   0.0000000   0.0000000  31.3000000  31.3000000
 NMagM=    0.0000000   2.7928460   2.7928460   2.7928460   2.1063990   2.1063990
 AtZNuc=   6.0000000   1.0000000   1.0000000   1.0000000  35.0000000  35.0000000
 Leave Link  101 at Thu Jan 16 14:07:50 2020, MaxMem=  6710886400 cpu:               8.1 elap:               0.5
 (Enter /apps/gaussian/g16-a03/l103.exe)

 GradGradGradGradGradGradGradGradGradGradGradGradGradGradGradGradGradGrad
 Berny optimization.
 Initialization pass.
                           ----------------------------
                           !    Initial Parameters    !
                           ! (Angstroms and Degrees)  !
 --------------------------                            --------------------------
 ! Name  Definition              Value          Derivative Info.                !
 --------------------------------------------------------------------------------
 ! R1    R(1,2)                  1.386          estimate D2E/DX2                !
 ! R2    R(1,5)                  1.7586         estimate D2E/DX2                !
 ! R3    R(1,8)                  1.4444         estimate D2E/DX2                !
 ! R4    R(2,3)                  1.4236         estimate D2E/DX2                !
 ! R5    R(2,6)                  1.3638         estimate D2E/DX2                !
 ! R6    R(3,4)                  1.3638         estimate D2E/DX2                !
 ! R7    R(3,7)                  1.0801         estimate D2E/DX2                !
 ! R8    R(4,5)                  1.7273         estimate D2E/DX2                !
 ! R9    R(4,65)                 1.93           estimate D2E/DX2                !
 ! R10   R(6,15)                 1.4245         estimate D2E/DX2                !
 ! R11   R(8,9)                  1.386          estimate D2E/DX2                !
 ! R12   R(8,12)                 1.7593         estimate D2E/DX2                !
 ! R13   R(9,10)                 1.4236         estimate D2E/DX2                !
 ! R14   R(9,13)                 1.3638         estimate D2E/DX2                !
 ! R15   R(10,11)                1.3647         estimate D2E/DX2                !
 ! R16   R(10,14)                1.0799         estimate D2E/DX2                !
 ! R17   R(11,12)                1.7266         estimate D2E/DX2                !
 ! R18   R(11,66)                1.93           estimate D2E/DX2                !
 ! R19   R(13,40)                1.425          estimate D2E/DX2                !
 ! R20   R(15,16)                1.0955         estimate D2E/DX2                !
 ! R21   R(15,17)                1.0963         estimate D2E/DX2                !
 ! R22   R(15,18)                1.5175         estimate D2E/DX2                !
 ! R23   R(18,19)                1.0991         estimate D2E/DX2                !
 ! R24   R(18,20)                1.0991         estimate D2E/DX2                !
 ! R25   R(18,21)                1.4148         estimate D2E/DX2                !
 ! R26   R(21,22)                1.4165         estimate D2E/DX2                !
 ! R27   R(22,23)                1.0991         estimate D2E/DX2                !
 ! R28   R(22,24)                1.0991         estimate D2E/DX2                !
 ! R29   R(22,25)                1.5182         estimate D2E/DX2                !
 ! R30   R(25,26)                1.0996         estimate D2E/DX2                !
 ! R31   R(25,27)                1.0988         estimate D2E/DX2                !
 ! R32   R(25,28)                1.4142         estimate D2E/DX2                !
 ! R33   R(28,29)                1.4161         estimate D2E/DX2                !
 ! R34   R(29,30)                1.0985         estimate D2E/DX2                !
 ! R35   R(29,31)                1.0994         estimate D2E/DX2                !
 ! R36   R(29,32)                1.5182         estimate D2E/DX2                !
 ! R37   R(32,33)                1.1002         estimate D2E/DX2                !
 ! R38   R(32,34)                1.1002         estimate D2E/DX2                !
 ! R39   R(32,35)                1.413          estimate D2E/DX2                !
 ! R40   R(35,36)                1.4124         estimate D2E/DX2                !
 ! R41   R(36,37)                1.0996         estimate D2E/DX2                !
 ! R42   R(36,38)                1.0903         estimate D2E/DX2                !
 ! R43   R(36,39)                1.0996         estimate D2E/DX2                !
 ! R44   R(40,41)                1.0957         estimate D2E/DX2                !
 ! R45   R(40,42)                1.0949         estimate D2E/DX2                !
 ! R46   R(40,43)                1.5182         estimate D2E/DX2                !
 ! R47   R(43,44)                1.0985         estimate D2E/DX2                !
 ! R48   R(43,45)                1.0993         estimate D2E/DX2                !
 ! R49   R(43,46)                1.4148         estimate D2E/DX2                !
 ! R50   R(46,47)                1.4165         estimate D2E/DX2                !
 ! R51   R(47,48)                1.0996         estimate D2E/DX2                !
 ! R52   R(47,49)                1.0991         estimate D2E/DX2                !
 ! R53   R(47,50)                1.5182         estimate D2E/DX2                !
 ! R54   R(50,51)                1.0996         estimate D2E/DX2                !
 ! R55   R(50,52)                1.0988         estimate D2E/DX2                !
 ! R56   R(50,53)                1.4148         estimate D2E/DX2                !
 ! R57   R(53,54)                1.4161         estimate D2E/DX2                !
 ! R58   R(54,55)                1.0993         estimate D2E/DX2                !
 ! R59   R(54,56)                1.0994         estimate D2E/DX2                !
 ! R60   R(54,57)                1.5175         estimate D2E/DX2                !
 ! R61   R(57,58)                1.1001         estimate D2E/DX2                !
 ! R62   R(57,59)                1.1002         estimate D2E/DX2                !
 ! R63   R(57,60)                1.4139         estimate D2E/DX2                !
 ! R64   R(60,61)                1.4124         estimate D2E/DX2                !
 ! R65   R(61,62)                1.0996         estimate D2E/DX2                !
 ! R66   R(61,63)                1.0903         estimate D2E/DX2                !
 ! R67   R(61,64)                1.0996         estimate D2E/DX2                !
 ! A1    A(2,1,5)              109.2339         estimate D2E/DX2                !
 ! A2    A(2,1,8)              128.1236         estimate D2E/DX2                !
 ! A3    A(5,1,8)              122.6425         estimate D2E/DX2                !
 ! A4    A(1,2,3)              114.2828         estimate D2E/DX2                !
 ! A5    A(1,2,6)              119.6024         estimate D2E/DX2                !
 ! A6    A(3,2,6)              126.1147         estimate D2E/DX2                !
 ! A7    A(2,3,4)              112.1188         estimate D2E/DX2                !
 ! A8    A(2,3,7)              124.3836         estimate D2E/DX2                !
 ! A9    A(4,3,7)              123.4976         estimate D2E/DX2                !
 ! A10   A(3,4,5)              112.3899         estimate D2E/DX2                !
 ! A11   A(3,4,65)             117.4245         estimate D2E/DX2                !
 ! A12   A(5,4,65)             130.1855         estimate D2E/DX2                !
 ! A13   A(1,5,4)               91.9745         estimate D2E/DX2                !
 ! A14   A(2,6,15)             118.2013         estimate D2E/DX2                !
 ! A15   A(1,8,9)              128.1236         estimate D2E/DX2                !
 ! A16   A(1,8,12)             122.6656         estimate D2E/DX2                !
 ! A17   A(9,8,12)             109.2108         estimate D2E/DX2                !
 ! A18   A(8,9,10)             114.3231         estimate D2E/DX2                !
 ! A19   A(8,9,13)             119.6024         estimate D2E/DX2                !
 ! A20   A(10,9,13)            126.0745         estimate D2E/DX2                !
 ! A21   A(9,10,11)            112.0639         estimate D2E/DX2                !
 ! A22   A(9,10,14)            124.4979         estimate D2E/DX2                !
 ! A23   A(11,10,14)           123.4382         estimate D2E/DX2                !
 ! A24   A(10,11,12)           112.4271         estimate D2E/DX2                !
 ! A25   A(10,11,66)           120.2865         estimate D2E/DX2                !
 ! A26   A(12,11,66)           127.2863         estimate D2E/DX2                !
 ! A27   A(8,12,11)             91.9751         estimate D2E/DX2                !
 ! A28   A(9,13,40)            118.1656         estimate D2E/DX2                !
 ! A29   A(6,15,16)            110.7316         estimate D2E/DX2                !
 ! A30   A(6,15,17)            110.7155         estimate D2E/DX2                !
 ! A31   A(6,15,18)            107.0381         estimate D2E/DX2                !
 ! A32   A(16,15,17)           108.6994         estimate D2E/DX2                !
 ! A33   A(16,15,18)           109.8304         estimate D2E/DX2                !
 ! A34   A(17,15,18)           109.8151         estimate D2E/DX2                !
 ! A35   A(15,18,19)           109.8841         estimate D2E/DX2                !
 ! A36   A(15,18,20)           109.8841         estimate D2E/DX2                !
 ! A37   A(15,18,21)           106.8333         estimate D2E/DX2                !
 ! A38   A(19,18,20)           107.9648         estimate D2E/DX2                !
 ! A39   A(19,18,21)           111.1397         estimate D2E/DX2                !
 ! A40   A(20,18,21)           111.1397         estimate D2E/DX2                !
 ! A41   A(18,21,22)           113.4955         estimate D2E/DX2                !
 ! A42   A(21,22,23)           110.9326         estimate D2E/DX2                !
 ! A43   A(21,22,24)           110.9326         estimate D2E/DX2                !
 ! A44   A(21,22,25)           107.5732         estimate D2E/DX2                !
 ! A45   A(23,22,24)           107.9724         estimate D2E/DX2                !
 ! A46   A(23,22,25)           109.7142         estimate D2E/DX2                !
 ! A47   A(24,22,25)           109.7142         estimate D2E/DX2                !
 ! A48   A(22,25,26)           109.642          estimate D2E/DX2                !
 ! A49   A(22,25,27)           109.7029         estimate D2E/DX2                !
 ! A50   A(22,25,28)           107.4968         estimate D2E/DX2                !
 ! A51   A(26,25,27)           107.8606         estimate D2E/DX2                !
 ! A52   A(26,25,28)           111.0815         estimate D2E/DX2                !
 ! A53   A(27,25,28)           111.054          estimate D2E/DX2                !
 ! A54   A(25,28,29)           113.4925         estimate D2E/DX2                !
 ! A55   A(28,29,30)           110.9786         estimate D2E/DX2                !
 ! A56   A(28,29,31)           110.9399         estimate D2E/DX2                !
 ! A57   A(28,29,32)           107.6274         estimate D2E/DX2                !
 ! A58   A(30,29,31)           107.9028         estimate D2E/DX2                !
 ! A59   A(30,29,32)           109.7231         estimate D2E/DX2                !
 ! A60   A(31,29,32)           109.6669         estimate D2E/DX2                !
 ! A61   A(29,32,33)           109.6129         estimate D2E/DX2                !
 ! A62   A(29,32,34)           109.6129         estimate D2E/DX2                !
 ! A63   A(29,32,35)           107.5165         estimate D2E/DX2                !
 ! A64   A(33,32,34)           107.8139         estimate D2E/DX2                !
 ! A65   A(33,32,35)           111.1394         estimate D2E/DX2                !
 ! A66   A(34,32,35)           111.1394         estimate D2E/DX2                !
 ! A67   A(32,35,36)           112.9567         estimate D2E/DX2                !
 ! A68   A(35,36,37)           111.6269         estimate D2E/DX2                !
 ! A69   A(35,36,38)           107.2479         estimate D2E/DX2                !
 ! A70   A(35,36,39)           111.6269         estimate D2E/DX2                !
 ! A71   A(37,36,38)           108.9234         estimate D2E/DX2                !
 ! A72   A(37,36,39)           108.4269         estimate D2E/DX2                !
 ! A73   A(38,36,39)           108.9234         estimate D2E/DX2                !
 ! A74   A(13,40,41)           110.7188         estimate D2E/DX2                !
 ! A75   A(13,40,42)           110.7349         estimate D2E/DX2                !
 ! A76   A(13,40,43)           106.976          estimate D2E/DX2                !
 ! A77   A(41,40,42)           108.7831         estimate D2E/DX2                !
 ! A78   A(41,40,43)           109.7669         estimate D2E/DX2                !
 ! A79   A(42,40,43)           109.8474         estimate D2E/DX2                !
 ! A80   A(40,43,44)           109.9013         estimate D2E/DX2                !
 ! A81   A(40,43,45)           109.8211         estimate D2E/DX2                !
 ! A82   A(40,43,46)           106.8069         estimate D2E/DX2                !
 ! A83   A(44,43,45)           108.0785         estimate D2E/DX2                !
 ! A84   A(44,43,46)           111.1254         estimate D2E/DX2                !
 ! A85   A(45,43,46)           111.1091         estimate D2E/DX2                !
 ! A86   A(43,46,47)           113.4955         estimate D2E/DX2                !
 ! A87   A(46,47,48)           110.9559         estimate D2E/DX2                !
 ! A88   A(46,47,49)           110.9326         estimate D2E/DX2                !
 ! A89   A(46,47,50)           107.5732         estimate D2E/DX2                !
 ! A90   A(48,47,49)           107.9303         estimate D2E/DX2                !
 ! A91   A(48,47,50)           109.7337         estimate D2E/DX2                !
 ! A92   A(49,47,50)           109.7142         estimate D2E/DX2                !
 ! A93   A(47,50,51)           109.6879         estimate D2E/DX2                !
 ! A94   A(47,50,52)           109.7029         estimate D2E/DX2                !
 ! A95   A(47,50,53)           107.4654         estimate D2E/DX2                !
 ! A96   A(51,50,52)           107.8596         estimate D2E/DX2                !
 ! A97   A(51,50,53)           111.0535         estimate D2E/DX2                !
 ! A98   A(52,50,53)           111.0697         estimate D2E/DX2                !
 ! A99   A(50,53,54)           113.461          estimate D2E/DX2                !
 ! A100  A(53,54,55)           110.9625         estimate D2E/DX2                !
 ! A101  A(53,54,56)           110.9399         estimate D2E/DX2                !
 ! A102  A(53,54,57)           107.6008         estimate D2E/DX2                !
 ! A103  A(55,54,56)           107.9335         estimate D2E/DX2                !
 ! A104  A(55,54,57)           109.7216         estimate D2E/DX2                !
 ! A105  A(56,54,57)           109.6805         estimate D2E/DX2                !
 ! A106  A(54,57,58)           109.6677         estimate D2E/DX2                !
 ! A107  A(54,57,59)           109.6266         estimate D2E/DX2                !
 ! A108  A(54,57,60)           107.5087         estimate D2E/DX2                !
 ! A109  A(58,57,59)           107.8213         estimate D2E/DX2                !
 ! A110  A(58,57,60)           111.0826         estimate D2E/DX2                !
 ! A111  A(59,57,60)           111.13           estimate D2E/DX2                !
 ! A112  A(57,60,61)           112.9755         estimate D2E/DX2                !
 ! A113  A(60,61,62)           111.6269         estimate D2E/DX2                !
 ! A114  A(60,61,63)           107.2479         estimate D2E/DX2                !
 ! A115  A(60,61,64)           111.5835         estimate D2E/DX2                !
 ! A116  A(62,61,63)           108.9684         estimate D2E/DX2                !
 ! A117  A(62,61,64)           108.4266         estimate D2E/DX2                !
 ! A118  A(63,61,64)           108.9242         estimate D2E/DX2                !
 ! D1    D(5,1,2,3)              0.0            estimate D2E/DX2                !
 ! D2    D(5,1,2,6)            179.9517         estimate D2E/DX2                !
 ! D3    D(8,1,2,3)            180.0            estimate D2E/DX2                !
 ! D4    D(8,1,2,6)             -0.0483         estimate D2E/DX2                !
 ! D5    D(2,1,5,4)              0.0            estimate D2E/DX2                !
 ! D6    D(8,1,5,4)            180.0            estimate D2E/DX2                !
 ! D7    D(2,1,8,9)            180.0            estimate D2E/DX2                !
 ! D8    D(2,1,8,12)             0.0387         estimate D2E/DX2                !
 ! D9    D(5,1,8,9)              0.0            estimate D2E/DX2                !
 ! D10   D(5,1,8,12)          -179.9613         estimate D2E/DX2                !
 ! D11   D(1,2,3,4)              0.0            estimate D2E/DX2                !
 ! D12   D(1,2,3,7)            179.9357         estimate D2E/DX2                !
 ! D13   D(6,2,3,4)           -179.948          estimate D2E/DX2                !
 ! D14   D(6,2,3,7)             -0.0123         estimate D2E/DX2                !
 ! D15   D(1,2,6,15)          -179.9987         estimate D2E/DX2                !
 ! D16   D(3,2,6,15)            -0.0532         estimate D2E/DX2                !
 ! D17   D(2,3,4,5)              0.0            estimate D2E/DX2                !
 ! D18   D(2,3,4,65)           179.964          estimate D2E/DX2                !
 ! D19   D(7,3,4,5)           -179.9364         estimate D2E/DX2                !
 ! D20   D(7,3,4,65)             0.0276         estimate D2E/DX2                !
 ! D21   D(3,4,5,1)              0.0            estimate D2E/DX2                !
 ! D22   D(65,4,5,1)          -179.9582         estimate D2E/DX2                !
 ! D23   D(2,6,15,16)           60.3535         estimate D2E/DX2                !
 ! D24   D(2,6,15,17)          -60.2859         estimate D2E/DX2                !
 ! D25   D(2,6,15,18)         -179.9523         estimate D2E/DX2                !
 ! D26   D(1,8,9,10)           180.0            estimate D2E/DX2                !
 ! D27   D(1,8,9,13)             0.0            estimate D2E/DX2                !
 ! D28   D(12,8,9,10)           -0.0345         estimate D2E/DX2                !
 ! D29   D(12,8,9,13)          179.9655         estimate D2E/DX2                !
 ! D30   D(1,8,12,11)         -179.9866         estimate D2E/DX2                !
 ! D31   D(9,8,12,11)            0.0457         estimate D2E/DX2                !
 ! D32   D(8,9,10,11)            0.0            estimate D2E/DX2                !
 ! D33   D(8,9,10,14)          180.0            estimate D2E/DX2                !
 ! D34   D(13,9,10,11)         180.0            estimate D2E/DX2                !
 ! D35   D(13,9,10,14)           0.0            estimate D2E/DX2                !
 ! D36   D(8,9,13,40)          180.0            estimate D2E/DX2                !
 ! D37   D(10,9,13,40)           0.0            estimate D2E/DX2                !
 ! D38   D(9,10,11,12)           0.0359         estimate D2E/DX2                !
 ! D39   D(9,10,11,66)         179.9573         estimate D2E/DX2                !
 ! D40   D(14,10,11,12)       -179.9641         estimate D2E/DX2                !
 ! D41   D(14,10,11,66)         -0.0427         estimate D2E/DX2                !
 ! D42   D(10,11,12,8)          -0.0474         estimate D2E/DX2                !
 ! D43   D(66,11,12,8)        -179.9622         estimate D2E/DX2                !
 ! D44   D(9,13,40,41)          60.3884         estimate D2E/DX2                !
 ! D45   D(9,13,40,42)         -60.3608         estimate D2E/DX2                !
 ! D46   D(9,13,40,43)         179.9605         estimate D2E/DX2                !
 ! D47   D(6,15,18,19)         -59.3294         estimate D2E/DX2                !
 ! D48   D(6,15,18,20)          59.3294         estimate D2E/DX2                !
 ! D49   D(6,15,18,21)         180.0            estimate D2E/DX2                !
 ! D50   D(16,15,18,19)         60.9419         estimate D2E/DX2                !
 ! D51   D(16,15,18,20)        179.6007         estimate D2E/DX2                !
 ! D52   D(16,15,18,21)        -59.7287         estimate D2E/DX2                !
 ! D53   D(17,15,18,19)       -179.5727         estimate D2E/DX2                !
 ! D54   D(17,15,18,20)        -60.9139         estimate D2E/DX2                !
 ! D55   D(17,15,18,21)         59.7567         estimate D2E/DX2                !
 ! D56   D(15,18,21,22)        180.0            estimate D2E/DX2                !
 ! D57   D(19,18,21,22)         60.1343         estimate D2E/DX2                !
 ! D58   D(20,18,21,22)        -60.1343         estimate D2E/DX2                !
 ! D59   D(18,21,22,23)        -60.0008         estimate D2E/DX2                !
 ! D60   D(18,21,22,24)         60.0008         estimate D2E/DX2                !
 ! D61   D(18,21,22,25)        180.0            estimate D2E/DX2                !
 ! D62   D(21,22,25,26)         59.139          estimate D2E/DX2                !
 ! D63   D(21,22,25,27)        -59.1368         estimate D2E/DX2                !
 ! D64   D(21,22,25,28)        180.0            estimate D2E/DX2                !
 ! D65   D(23,22,25,26)        -61.6299         estimate D2E/DX2                !
 ! D66   D(23,22,25,27)       -179.9057         estimate D2E/DX2                !
 ! D67   D(23,22,25,28)         59.2311         estimate D2E/DX2                !
 ! D68   D(24,22,25,26)        179.9079         estimate D2E/DX2                !
 ! D69   D(24,22,25,27)         61.6321         estimate D2E/DX2                !
 ! D70   D(24,22,25,28)        -59.2311         estimate D2E/DX2                !
 ! D71   D(22,25,28,29)       -179.9559         estimate D2E/DX2                !
 ! D72   D(26,25,28,29)        -60.0053         estimate D2E/DX2                !
 ! D73   D(27,25,28,29)         60.0352         estimate D2E/DX2                !
 ! D74   D(25,28,29,30)         59.9242         estimate D2E/DX2                !
 ! D75   D(25,28,29,31)        -60.0251         estimate D2E/DX2                !
 ! D76   D(25,28,29,32)        179.9953         estimate D2E/DX2                !
 ! D77   D(28,29,32,33)         59.0314         estimate D2E/DX2                !
 ! D78   D(28,29,32,34)        -59.1164         estimate D2E/DX2                !
 ! D79   D(28,29,32,35)        179.9575         estimate D2E/DX2                !
 ! D80   D(30,29,32,33)        179.8942         estimate D2E/DX2                !
 ! D81   D(30,29,32,34)         61.7464         estimate D2E/DX2                !
 ! D82   D(30,29,32,35)        -59.1797         estimate D2E/DX2                !
 ! D83   D(31,29,32,33)        -61.7516         estimate D2E/DX2                !
 ! D84   D(31,29,32,34)       -179.8994         estimate D2E/DX2                !
 ! D85   D(31,29,32,35)         59.1745         estimate D2E/DX2                !
 ! D86   D(29,32,35,36)        180.0            estimate D2E/DX2                !
 ! D87   D(33,32,35,36)        -60.0386         estimate D2E/DX2                !
 ! D88   D(34,32,35,36)         60.0386         estimate D2E/DX2                !
 ! D89   D(32,35,36,37)         60.7659         estimate D2E/DX2                !
 ! D90   D(32,35,36,38)        180.0            estimate D2E/DX2                !
 ! D91   D(32,35,36,39)        -60.7659         estimate D2E/DX2                !
 ! D92   D(13,40,43,44)        -59.3525         estimate D2E/DX2                !
 ! D93   D(13,40,43,45)         59.4177         estimate D2E/DX2                !
 ! D94   D(13,40,43,46)       -179.9999         estimate D2E/DX2                !
 ! D95   D(41,40,43,44)         60.8307         estimate D2E/DX2                !
 ! D96   D(41,40,43,45)        179.6008         estimate D2E/DX2                !
 ! D97   D(41,40,43,46)        -59.8167         estimate D2E/DX2                !
 ! D98   D(42,40,43,44)       -179.6004         estimate D2E/DX2                !
 ! D99   D(42,40,43,45)        -60.8302         estimate D2E/DX2                !
 ! D100  D(42,40,43,46)         59.7523         estimate D2E/DX2                !
 ! D101  D(40,43,46,47)       -179.9606         estimate D2E/DX2                !
 ! D102  D(44,43,46,47)         60.1773         estimate D2E/DX2                !
 ! D103  D(45,43,46,47)        -60.2051         estimate D2E/DX2                !
 ! D104  D(43,46,47,48)        -59.9632         estimate D2E/DX2                !
 ! D105  D(43,46,47,49)         60.0008         estimate D2E/DX2                !
 ! D106  D(43,46,47,50)        180.0            estimate D2E/DX2                !
 ! D107  D(46,47,50,51)         59.1652         estimate D2E/DX2                !
 ! D108  D(46,47,50,52)        -59.1368         estimate D2E/DX2                !
 ! D109  D(46,47,50,53)        180.0            estimate D2E/DX2                !
 ! D110  D(48,47,50,51)        -61.6434         estimate D2E/DX2                !
 ! D111  D(48,47,50,52)       -179.9454         estimate D2E/DX2                !
 ! D112  D(48,47,50,53)         59.1914         estimate D2E/DX2                !
 ! D113  D(49,47,50,51)        179.9341         estimate D2E/DX2                !
 ! D114  D(49,47,50,52)         61.6321         estimate D2E/DX2                !
 ! D115  D(49,47,50,53)        -59.2311         estimate D2E/DX2                !
 ! D116  D(47,50,53,54)       -179.9559         estimate D2E/DX2                !
 ! D117  D(51,50,53,54)        -59.9853         estimate D2E/DX2                !
 ! D118  D(52,50,53,54)         60.0456         estimate D2E/DX2                !
 ! D119  D(50,53,54,55)         59.9522         estimate D2E/DX2                !
 ! D120  D(50,53,54,56)        -60.0251         estimate D2E/DX2                !
 ! D121  D(50,53,54,57)        179.9953         estimate D2E/DX2                !
 ! D122  D(53,54,57,58)         59.0731         estimate D2E/DX2                !
 ! D123  D(53,54,57,59)        -59.1245         estimate D2E/DX2                !
 ! D124  D(53,54,57,60)        179.9576         estimate D2E/DX2                !
 ! D125  D(55,54,57,58)        179.8993         estimate D2E/DX2                !
 ! D126  D(55,54,57,59)         61.7017         estimate D2E/DX2                !
 ! D127  D(55,54,57,60)        -59.2163         estimate D2E/DX2                !
 ! D128  D(56,54,57,58)        -61.7018         estimate D2E/DX2                !
 ! D129  D(56,54,57,59)       -179.8993         estimate D2E/DX2                !
 ! D130  D(56,54,57,60)         59.1827         estimate D2E/DX2                !
 ! D131  D(54,57,60,61)        180.0            estimate D2E/DX2                !
 ! D132  D(58,57,60,61)        -60.01           estimate D2E/DX2                !
 ! D133  D(59,57,60,61)         60.0324         estimate D2E/DX2                !
 ! D134  D(57,60,61,62)         60.7659         estimate D2E/DX2                !
 ! D135  D(57,60,61,63)       -179.945          estimate D2E/DX2                !
 ! D136  D(57,60,61,64)        -60.7348         estimate D2E/DX2                !
 --------------------------------------------------------------------------------
 Trust Radius=3.00D-01 FncErr=1.00D-07 GrdErr=1.00D-06 EigMax=2.50D+02 EigMin=1.00D-04
 Number of steps in this run=    331 maximum allowed number of steps=    396.
 GradGradGradGradGradGradGradGradGradGradGradGradGradGradGradGradGradGrad

 Leave Link  103 at Thu Jan 16 14:07:50 2020, MaxMem=  6710886400 cpu:               0.8 elap:               0.1
 (Enter /apps/gaussian/g16-a03/l202.exe)
 Stoichiometry    C22H32Br2O8S2
 Framework group  C1[X(C22H32Br2O8S2)]
 Deg. of freedom   192
 Full point group                 C1      NOp   1
 Largest Abelian subgroup         C1      NOp   1
 Largest concise Abelian subgroup C1      NOp   1
                         Standard orientation:                         
 ---------------------------------------------------------------------
 Center     Atomic      Atomic             Coordinates (Angstroms)
 Number     Number       Type             X           Y           Z
 ---------------------------------------------------------------------
      1          6           0        0.138010    0.705200   -0.000991
      2          6           0        1.380700    1.318947   -0.000991
      3          6           0        1.330985    2.741699   -0.000991
      4          6           0        0.050422    3.210762   -0.000991
      5         16           0       -1.116690    1.937414   -0.000991
      6          8           0        2.509864    0.554059    0.000009
      7          1           0        2.200523    3.382423    0.000009
      8          6           0       -0.158329   -0.708428   -0.000991
      9          6           0       -1.401019   -1.322175   -0.000991
     10          6           0       -1.352304   -2.744932   -0.000991
     11          6           0       -0.070741   -3.213990   -0.000991
     12         16           0        1.096377   -1.941642    0.000009
     13          8           0       -2.530183   -0.557287   -0.000991
     14          1           0       -2.220837   -3.386651   -0.000991
     15          6           0        3.771294    1.215909    0.000009
     16          1           0        3.878882    1.845501    0.890009
     17          1           0        3.878882    1.845501   -0.890991
     18          6           0        4.839156    0.137683    0.000009
     19          1           0        4.727607   -0.498931    0.889009
     20          1           0        4.727607   -0.498931   -0.888991
     21          8           0        6.089586    0.799474    0.000009
     22          6           0        7.196396   -0.084538    0.000009
     23          1           0        7.182899   -0.730620    0.889009
     24          1           0        7.182899   -0.730620   -0.888991
     25          6           0        8.457833    0.760315    0.000009
     26          1           0        8.469325    1.407387    0.889009
     27          1           0        8.470325    1.407392   -0.887991
     28          8           0        9.561643   -0.123713    0.000009
     29          6           0       10.814079    0.537088    0.001009
     30          1           0       10.921623    1.174681    0.889009
     31          1           0       10.922623    1.174686   -0.887991
     32          6           0       11.895870   -0.528061    0.001009
     33          1           0       11.785331   -1.166670   -0.887991
     34          1           0       11.785331   -1.166670    0.890009
     35          8           0       13.144300    0.133718    0.001009
     36          6           0       14.240148   -0.757353    0.001009
     37          1           0       14.239635   -1.400365   -0.890991
     38          1           0       15.147887   -0.153422    0.001009
     39          1           0       14.239635   -1.400365    0.893009
     40          6           0       -3.791608   -1.220137   -0.000991
     41          1           0       -3.899201   -1.848729    0.890009
     42          1           0       -3.899201   -1.848729   -0.890991
     43          6           0       -4.859475   -0.140911    0.000009
     44          1           0       -4.747920    0.494703    0.889009
     45          1           0       -4.747920    0.494703   -0.889991
     46          8           0       -6.109905   -0.802702    0.000009
     47          6           0       -7.216715    0.081310    0.000009
     48          1           0       -7.203224    0.728392    0.889009
     49          1           0       -7.203218    0.727393   -0.888991
     50          6           0       -8.478152   -0.763543    0.000009
     51          1           0       -8.490644   -1.410620    0.889009
     52          1           0       -8.490644   -1.410620   -0.887991
     53          8           0       -9.581968    0.121485    0.000009
     54          6           0      -10.834403   -0.539316    0.001009
     55          1           0      -10.941947   -1.176909    0.890009
     56          1           0      -10.942947   -1.176914   -0.887991
     57          6           0      -11.915195    0.525839    0.001009
     58          1           0      -11.805656    1.164442   -0.887991
     59          1           0      -11.804656    1.164448    0.890009
     60          8           0      -13.164624   -0.135946    0.001009
     61          6           0      -14.260472    0.755125    0.001009
     62          1           0      -14.259959    1.398137   -0.890991
     63          1           0      -15.168211    0.151194    0.002009
     64          1           0      -14.258959    1.398143    0.893009
     65         35           0       -0.195047    5.125088    0.000085
     66         35           0        0.270491   -5.113584    0.000249
 ---------------------------------------------------------------------
 Rotational constants (GHZ):           0.0999270           0.0180453           0.0153058
 Leave Link  202 at Thu Jan 16 14:07:51 2020, MaxMem=  6710886400 cpu:               0.9 elap:               0.1
 (Enter /apps/gaussian/g16-a03/l301.exe)
 Standard basis: 6-311G(d,p) (5D, 7F)
 Ernie: Thresh=  0.10000D-02 Tol=  0.10000D-05 Strict=F.
 There are   910 symmetry adapted cartesian basis functions of A   symmetry.
 There are   872 symmetry adapted basis functions of A   symmetry.
   872 basis functions,  1488 primitive gaussians,   910 cartesian basis functions
   165 alpha electrons      165 beta electrons
       nuclear repulsion energy      4655.6387077810 Hartrees.
 IExCor=  402 DFT=T Ex+Corr=B3LYP ExCW=0 ScaHFX=  0.200000
 ScaDFX=  0.800000  0.720000  1.000000  0.810000 ScalE2=  1.000000  1.000000
 IRadAn=      5 IRanWt=     -1 IRanGd=            0 ICorTp=0 IEmpDi=  4
 NAtoms=   66 NActive=   66 NUniq=   66 SFac= 1.00D+00 NAtFMM=   60 NAOKFM=T Big=T
 Integral buffers will be    131072 words long.
 Raffenetti 2 integral format.
 Two-electron integral symmetry is turned on.
 Leave Link  301 at Thu Jan 16 14:07:51 2020, MaxMem=  6710886400 cpu:               1.8 elap:               0.1
 (Enter /apps/gaussian/g16-a03/l302.exe)
 NPDir=0 NMtPBC=     1 NCelOv=     1 NCel=       1 NClECP=     1 NCelD=      1
         NCelK=      1 NCelE2=     1 NClLst=     1 CellRange=     0.0.
 One-electron integrals computed using PRISM.
 One-electron integral symmetry used in STVInt
 NBasis=   872 RedAO= T EigKep=  2.97D-04  NBF=   872
 NBsUse=   872 1.00D-06 EigRej= -1.00D+00 NBFU=   872
 Precomputing XC quadrature grid using
 IXCGrd= 4 IRadAn=           5 IRanWt=          -1 IRanGd=           0 AccXCQ= 0.00D+00.
 Generated NRdTot=       0 NPtTot=           0 NUsed=           0 NTot=          32
 NSgBfM=   624   624   624   624   624 MxSgAt=    66 MxSgA2=    66.
 Leave Link  302 at Thu Jan 16 14:07:54 2020, MaxMem=  6710886400 cpu:              44.7 elap:               2.8
 (Enter /apps/gaussian/g16-a03/l303.exe)
 DipDrv:  MaxL=1.
 Leave Link  303 at Thu Jan 16 14:07:54 2020, MaxMem=  6710886400 cpu:               3.6 elap:               0.3
 (Enter /apps/gaussian/g16-a03/l401.exe)
 ExpMin= 7.71D-02 ExpMax= 4.40D+05 ExpMxC= 1.51D+04 IAcc=3 IRadAn=         5 AccDes= 0.00D+00
 Harris functional with IExCor=  402 and IRadAn=       5 diagonalized for initial guess.
 HarFok:  IExCor=  402 AccDes= 0.00D+00 IRadAn=         5 IDoV= 1 UseB2=F ITyADJ=14
 ICtDFT=  3500011 ScaDFX=  1.000000  1.000000  1.000000  1.000000
 FoFCou: FMM=F IPFlag=           0 FMFlag=      100000 FMFlg1=        2001
         NFxFlg=           0 DoJE=T BraDBF=F KetDBF=T FulRan=T
         wScrn=  0.000000 ICntrl=       500 IOpCl=  0 I1Cent=   200000004 NGrid=           0
         NMat0=    1 NMatS0=      1 NMatT0=    0 NMatD0=    1 NMtDS0=    0 NMtDT0=    0
 Petite list used in FoFCou.
 Harris En= -7404.42399972877    
 JPrj=0 DoOrth=F DoCkMO=F.
 Leave Link  401 at Thu Jan 16 14:08:02 2020, MaxMem=  6710886400 cpu:             132.3 elap:               8.3
 (Enter /apps/gaussian/g16-a03/l502.exe)
 Integral symmetry usage will be decided dynamically.
 Closed shell SCF:
 Using DIIS extrapolation, IDIIS=  1040.
 NGot=  6710886400 LenX=  6709206752 LenY=  6708377742
 Requested convergence on RMS density matrix=1.00D-08 within 128 cycles.
 Requested convergence on MAX density matrix=1.00D-06.
 Requested convergence on             energy=1.00D-06.
 No special actions if energy rises.
 Fock matrices will be formed incrementally for  20 cycles.
 Integral accuracy reduced to 1.0D-05 until final iterations.

 Cycle   1  Pass 0  IDiag  1:
 FoFJK:  IHMeth= 1 ICntrl=       0 DoSepK=F KAlg= 0 I1Cent=           0 FoldK=F
 IRaf= 480000000 NMat=       1 IRICut=       1 DoRegI=T DoRafI=F ISym2E= 0 IDoP0=0 IntGTp=1.
 FoFCou: FMM=T IPFlag=           0 FMFlag=      100000 FMFlg1=        2001
         NFxFlg=           0 DoJE=F BraDBF=F KetDBF=F FulRan=T
         wScrn=  0.000000 ICntrl=         0 IOpCl=  0 I1Cent=           0 NGrid=           0
         NMat0=    1 NMatS0=      1 NMatT0=    0 NMatD0=    1 NMtDS0=    0 NMtDT0=    0
 Symmetry not used in FoFCou.
 FMM levels:  10  Number of levels for PrismC:   9
 E= -7403.53356920205    
 DIIS: error= 7.94D-02 at cycle   1 NSaved=   1.
 NSaved= 1 IEnMin= 1 EnMin= -7403.53356920205     IErMin= 1 ErrMin= 7.94D-02
 ErrMax= 7.94D-02  0.00D+00 EMaxC= 1.00D-01 BMatC= 3.26D+00 BMatP= 3.26D+00
 IDIUse=3 WtCom= 2.06D-01 WtEn= 7.94D-01
 Coeff-Com:  0.100D+01
 Coeff-En:   0.100D+01
 Coeff:      0.100D+01
 Gap=     0.090 Goal=   None    Shift=    0.000
 GapD=    0.090 DampG=0.500 DampE=0.500 DampFc=0.2500 IDamp=-1.
 Damping current iteration by 2.50D-01
 RMSDP=2.17D-03 MaxDP=1.38D-01              OVMax= 2.72D-01

 Cycle   2  Pass 0  IDiag  1:
 RMSU=  5.43D-04    CP:  9.99D-01
 E= -7403.83031570997     Delta-E=       -0.296746507924 Rises=F Damp=T
 DIIS: error= 5.42D-02 at cycle   2 NSaved=   2.
 NSaved= 2 IEnMin= 2 EnMin= -7403.83031570997     IErMin= 2 ErrMin= 5.42D-02
 ErrMax= 5.42D-02  0.00D+00 EMaxC= 1.00D-01 BMatC= 1.35D+00 BMatP= 3.26D+00
 IDIUse=3 WtCom= 4.58D-01 WtEn= 5.42D-01
 Coeff-Com: -0.141D+01 0.241D+01
 Coeff-En:   0.000D+00 0.100D+01
 Coeff:     -0.646D+00 0.165D+01
 Gap=     0.169 Goal=   None    Shift=    0.000
 RMSDP=5.97D-04 MaxDP=4.48D-02 DE=-2.97D-01 OVMax= 2.25D-01

 Cycle   3  Pass 0  IDiag  1:
 RMSU=  5.52D-04    CP:  1.00D+00  1.42D+00
 E= -7404.32885227482     Delta-E=       -0.498536564846 Rises=F Damp=F
 DIIS: error= 6.59D-03 at cycle   3 NSaved=   3.
 NSaved= 3 IEnMin= 3 EnMin= -7404.32885227482     IErMin= 3 ErrMin= 6.59D-03
 ErrMax= 6.59D-03  0.00D+00 EMaxC= 1.00D-01 BMatC= 3.08D-02 BMatP= 1.35D+00
 IDIUse=3 WtCom= 9.34D-01 WtEn= 6.59D-02
 Coeff-Com: -0.105D+00 0.237D+00 0.867D+00
 Coeff-En:   0.000D+00 0.000D+00 0.100D+01
 Coeff:     -0.977D-01 0.222D+00 0.876D+00
 Gap=     0.137 Goal=   None    Shift=    0.000
 RMSDP=3.82D-04 MaxDP=2.98D-02 DE=-4.99D-01 OVMax= 6.82D-02

 Cycle   4  Pass 0  IDiag  1:
 RMSU=  2.18D-04    CP:  1.00D+00  1.61D+00  4.62D-01
 E= -7404.32430868216     Delta-E=        0.004543592659 Rises=F Damp=F
 DIIS: error= 8.33D-03 at cycle   4 NSaved=   4.
 NSaved= 4 IEnMin= 3 EnMin= -7404.32885227482     IErMin= 3 ErrMin= 6.59D-03
 ErrMax= 8.33D-03  0.00D+00 EMaxC= 1.00D-01 BMatC= 2.76D-02 BMatP= 3.08D-02
 IDIUse=3 WtCom= 9.17D-01 WtEn= 8.33D-02
 Coeff-Com:  0.304D-01-0.140D-01 0.507D+00 0.476D+00
 Coeff-En:   0.000D+00 0.000D+00 0.543D+00 0.457D+00
 Coeff:      0.279D-01-0.129D-01 0.510D+00 0.475D+00
 Gap=     0.140 Goal=   None    Shift=    0.000
 RMSDP=1.93D-04 MaxDP=1.21D-02 DE= 4.54D-03 OVMax= 3.91D-02

 Cycle   5  Pass 0  IDiag  1:
 RMSU=  6.53D-05    CP:  1.00D+00  1.50D+00  6.97D-01  4.89D-01
 E= -7404.34876755369     Delta-E=       -0.024458871532 Rises=F Damp=F
 DIIS: error= 2.10D-03 at cycle   5 NSaved=   5.
 NSaved= 5 IEnMin= 5 EnMin= -7404.34876755369     IErMin= 5 ErrMin= 2.10D-03
 ErrMax= 2.10D-03  0.00D+00 EMaxC= 1.00D-01 BMatC= 1.18D-03 BMatP= 2.76D-02
 IDIUse=3 WtCom= 9.79D-01 WtEn= 2.10D-02
 Coeff-Com:  0.267D-01-0.255D-01 0.252D+00 0.267D+00 0.479D+00
 Coeff-En:   0.000D+00 0.000D+00 0.000D+00 0.000D+00 0.100D+01
 Coeff:      0.262D-01-0.250D-01 0.247D+00 0.262D+00 0.490D+00
 Gap=     0.139 Goal=   None    Shift=    0.000
 RMSDP=4.98D-05 MaxDP=4.49D-03 DE=-2.45D-02 OVMax= 1.34D-02

 Cycle   6  Pass 0  IDiag  1:
 RMSU=  2.63D-05    CP:  1.00D+00  1.48D+00  7.04D-01  5.35D-01  3.83D-01
 E= -7404.34960866085     Delta-E=       -0.000841107154 Rises=F Damp=F
 DIIS: error= 1.38D-03 at cycle   6 NSaved=   6.
 NSaved= 6 IEnMin= 6 EnMin= -7404.34960866085     IErMin= 6 ErrMin= 1.38D-03
 ErrMax= 1.38D-03  0.00D+00 EMaxC= 1.00D-01 BMatC= 2.53D-04 BMatP= 1.18D-03
 IDIUse=3 WtCom= 9.86D-01 WtEn= 1.38D-02
 Coeff-Com:  0.148D-01-0.162D-01 0.107D+00 0.119D+00 0.334D+00 0.442D+00
 Coeff-En:   0.000D+00 0.000D+00 0.000D+00 0.000D+00 0.214D+00 0.786D+00
 Coeff:      0.146D-01-0.159D-01 0.106D+00 0.117D+00 0.333D+00 0.446D+00
 Gap=     0.139 Goal=   None    Shift=    0.000
 RMSDP=2.19D-05 MaxDP=1.61D-03 DE=-8.41D-04 OVMax= 6.77D-03

 Cycle   7  Pass 0  IDiag  1:
 RMSU=  7.57D-06    CP:  1.00D+00  1.48D+00  7.08D-01  5.22D-01  5.54D-01
                    CP:  3.66D-01
 E= -7404.34985095248     Delta-E=       -0.000242291633 Rises=F Damp=F
 DIIS: error= 3.25D-04 at cycle   7 NSaved=   7.
 NSaved= 7 IEnMin= 7 EnMin= -7404.34985095248     IErMin= 7 ErrMin= 3.25D-04
 ErrMax= 3.25D-04  0.00D+00 EMaxC= 1.00D-01 BMatC= 2.06D-05 BMatP= 2.53D-04
 IDIUse=3 WtCom= 9.97D-01 WtEn= 3.25D-03
 Coeff-Com:  0.596D-02-0.688D-02 0.364D-01 0.408D-01 0.147D+00 0.275D+00
 Coeff-Com:  0.502D+00
 Coeff-En:   0.000D+00 0.000D+00 0.000D+00 0.000D+00 0.000D+00 0.397D-01
 Coeff-En:   0.960D+00
 Coeff:      0.594D-02-0.685D-02 0.362D-01 0.407D-01 0.146D+00 0.275D+00
 Coeff:      0.503D+00
 Gap=     0.139 Goal=   None    Shift=    0.000
 RMSDP=6.59D-06 MaxDP=4.70D-04 DE=-2.42D-04 OVMax= 1.87D-03

 Initial convergence to 1.0D-05 achieved.  Increase integral accuracy.
 Cycle   8  Pass 1  IDiag  1:
 E= -7404.34986330634     Delta-E=       -0.000012353856 Rises=F Damp=F
 DIIS: error= 1.06D-04 at cycle   1 NSaved=   1.
 NSaved= 1 IEnMin= 1 EnMin= -7404.34986330634     IErMin= 1 ErrMin= 1.06D-04
 ErrMax= 1.06D-04  0.00D+00 EMaxC= 1.00D-01 BMatC= 4.59D-06 BMatP= 4.59D-06
 IDIUse=3 WtCom= 9.99D-01 WtEn= 1.06D-03
 Coeff-Com:  0.100D+01
 Coeff-En:   0.100D+01
 Coeff:      0.100D+01
 Gap=     0.139 Goal=   None    Shift=    0.000
 RMSDP=6.59D-06 MaxDP=4.70D-04 DE=-1.24D-05 OVMax= 1.47D-03

 Cycle   9  Pass 1  IDiag  1:
 RMSU=  2.60D-05    CP:  1.00D+00
 E= -7404.34985727875     Delta-E=        0.000006027582 Rises=F Damp=F
 DIIS: error= 2.03D-04 at cycle   2 NSaved=   2.
 NSaved= 2 IEnMin= 1 EnMin= -7404.34986330634     IErMin= 1 ErrMin= 1.06D-04
 ErrMax= 2.03D-04  0.00D+00 EMaxC= 1.00D-01 BMatC= 1.06D-05 BMatP= 4.59D-06
 IDIUse=3 WtCom= 4.12D-01 WtEn= 5.88D-01
 Coeff-Com:  0.618D+00 0.382D+00
 Coeff-En:   0.690D+00 0.310D+00
 Coeff:      0.660D+00 0.340D+00
 Gap=     0.139 Goal=   None    Shift=    0.000
 RMSDP=4.06D-06 MaxDP=3.10D-04 DE= 6.03D-06 OVMax= 1.17D-03

 Cycle  10  Pass 1  IDiag  1:
 RMSU=  4.05D-06    CP:  1.00D+00  9.85D-01
 E= -7404.34986772971     Delta-E=       -0.000010450953 Rises=F Damp=F
 DIIS: error= 4.19D-05 at cycle   3 NSaved=   3.
 NSaved= 3 IEnMin= 3 EnMin= -7404.34986772971     IErMin= 3 ErrMin= 4.19D-05
 ErrMax= 4.19D-05  0.00D+00 EMaxC= 1.00D-01 BMatC= 2.62D-07 BMatP= 4.59D-06
 IDIUse=1 WtCom= 1.00D+00 WtEn= 0.00D+00
 Coeff-Com:  0.145D+00 0.131D+00 0.725D+00
 Coeff:      0.145D+00 0.131D+00 0.725D+00
 Gap=     0.139 Goal=   None    Shift=    0.000
 RMSDP=1.14D-06 MaxDP=8.96D-05 DE=-1.05D-05 OVMax= 3.41D-04

 Cycle  11  Pass 1  IDiag  1:
 RMSU=  9.97D-07    CP:  1.00D+00  9.90D-01  8.68D-01
 E= -7404.34986768826     Delta-E=        0.000000041447 Rises=F Damp=F
 DIIS: error= 4.33D-05 at cycle   4 NSaved=   4.
 NSaved= 4 IEnMin= 3 EnMin= -7404.34986772971     IErMin= 3 ErrMin= 4.19D-05
 ErrMax= 4.33D-05  0.00D+00 EMaxC= 1.00D-01 BMatC= 3.19D-07 BMatP= 2.62D-07
 IDIUse=1 WtCom= 1.00D+00 WtEn= 0.00D+00
 Coeff-Com:  0.694D-02 0.340D-01 0.531D+00 0.428D+00
 Coeff:      0.694D-02 0.340D-01 0.531D+00 0.428D+00
 Gap=     0.139 Goal=   None    Shift=    0.000
 RMSDP=6.54D-07 MaxDP=6.14D-05 DE= 4.14D-08 OVMax= 1.76D-04

 Cycle  12  Pass 1  IDiag  1:
 RMSU=  1.74D-07    CP:  1.00D+00  9.94D-01  9.22D-01  4.16D-01
 E= -7404.34986799407     Delta-E=       -0.000000305812 Rises=F Damp=F
 DIIS: error= 4.31D-06 at cycle   5 NSaved=   5.
 NSaved= 5 IEnMin= 5 EnMin= -7404.34986799407     IErMin= 5 ErrMin= 4.31D-06
 ErrMax= 4.31D-06  0.00D+00 EMaxC= 1.00D-01 BMatC= 9.10D-09 BMatP= 2.62D-07
 IDIUse=1 WtCom= 1.00D+00 WtEn= 0.00D+00
 Coeff-Com: -0.207D-02 0.139D-01 0.285D+00 0.253D+00 0.450D+00
 Coeff:     -0.207D-02 0.139D-01 0.285D+00 0.253D+00 0.450D+00
 Gap=     0.139 Goal=   None    Shift=    0.000
 RMSDP=9.65D-08 MaxDP=7.32D-06 DE=-3.06D-07 OVMax= 2.29D-05

 Cycle  13  Pass 1  IDiag  1:
 RMSU=  5.20D-08    CP:  1.00D+00  9.94D-01  9.20D-01  4.50D-01  5.77D-01
 E= -7404.34986800260     Delta-E=       -0.000000008527 Rises=F Damp=F
 DIIS: error= 7.81D-07 at cycle   6 NSaved=   6.
 NSaved= 6 IEnMin= 6 EnMin= -7404.34986800260     IErMin= 6 ErrMin= 7.81D-07
 ErrMax= 7.81D-07  0.00D+00 EMaxC= 1.00D-01 BMatC= 2.71D-10 BMatP= 9.10D-09
 IDIUse=1 WtCom= 1.00D+00 WtEn= 0.00D+00
 Coeff-Com: -0.137D-02 0.558D-02 0.130D+00 0.117D+00 0.239D+00 0.510D+00
 Coeff:     -0.137D-02 0.558D-02 0.130D+00 0.117D+00 0.239D+00 0.510D+00
 Gap=     0.139 Goal=   None    Shift=    0.000
 RMSDP=2.37D-08 MaxDP=1.79D-06 DE=-8.53D-09 OVMax= 5.76D-06

 Cycle  14  Pass 1  IDiag  1:
 RMSU=  1.79D-08    CP:  1.00D+00  9.94D-01  9.21D-01  4.44D-01  5.88D-01
                    CP:  7.38D-01
 E= -7404.34986800282     Delta-E=       -0.000000000218 Rises=F Damp=F
 DIIS: error= 2.56D-07 at cycle   7 NSaved=   7.
 NSaved= 7 IEnMin= 7 EnMin= -7404.34986800282     IErMin= 7 ErrMin= 2.56D-07
 ErrMax= 2.56D-07  0.00D+00 EMaxC= 1.00D-01 BMatC= 3.00D-11 BMatP= 2.71D-10
 IDIUse=1 WtCom= 1.00D+00 WtEn= 0.00D+00
 Coeff-Com: -0.573D-03 0.165D-02 0.455D-01 0.404D-01 0.894D-01 0.288D+00
 Coeff-Com:  0.536D+00
 Coeff:     -0.573D-03 0.165D-02 0.455D-01 0.404D-01 0.894D-01 0.288D+00
 Coeff:      0.536D+00
 Gap=     0.139 Goal=   None    Shift=    0.000
 RMSDP=6.22D-09 MaxDP=4.21D-07 DE=-2.18D-10 OVMax= 1.45D-06

 SCF Done:  E(RB3LYP) =  -7404.34986800     A.U. after   14 cycles
            NFock= 14  Conv=0.62D-08     -V/T= 2.0017
 KE= 7.391693155112D+03 PE=-2.692175830297D+04 EE= 7.470076572077D+03
 Leave Link  502 at Thu Jan 16 14:10:57 2020, MaxMem=  6710886400 cpu:            2772.7 elap:             174.1
 (Enter /apps/gaussian/g16-a03/l601.exe)
 Copying SCF densities to generalized density rwf, IOpCl= 0 IROHF=0.

 **********************************************************************

            Population analysis using the SCF density.

 **********************************************************************

 Orbital symmetries:
       Occupied  (A) (A) (A) (A) (A) (A) (A) (A) (A) (A) (A) (A)
                 (A) (A) (A) (A) (A) (A) (A) (A) (A) (A) (A) (A)
                 (A) (A) (A) (A) (A) (A) (A) (A) (A) (A) (A) (A)
                 (A) (A) (A) (A) (A) (A) (A) (A) (A) (A) (A) (A)
                 (A) (A) (A) (A) (A) (A) (A) (A) (A) (A) (A) (A)
                 (A) (A) (A) (A) (A) (A) (A) (A) (A) (A) (A) (A)
                 (A) (A) (A) (A) (A) (A) (A) (A) (A) (A) (A) (A)
                 (A) (A) (A) (A) (A) (A) (A) (A) (A) (A) (A) (A)
                 (A) (A) (A) (A) (A) (A) (A) (A) (A) (A) (A) (A)
                 (A) (A) (A) (A) (A) (A) (A) (A) (A) (A) (A) (A)
                 (A) (A) (A) (A) (A) (A) (A) (A) (A) (A) (A) (A)
                 (A) (A) (A) (A) (A) (A) (A) (A) (A) (A) (A) (A)
                 (A) (A) (A) (A) (A) (A) (A) (A) (A) (A) (A) (A)
                 (A) (A) (A) (A) (A) (A) (A) (A) (A)
       Virtual   (A) (A) (A) (A) (A) (A) (A) (A) (A) (A) (A) (A)
                 (A) (A) (A) (A) (A) (A) (A) (A) (A) (A) (A) (A)
                 (A) (A) (A) (A) (A) (A) (A) (A) (A) (A) (A) (A)
                 (A) (A) (A) (A) (A) (A) (A) (A) (A) (A) (A) (A)
                 (A) (A) (A) (A) (A) (A) (A) (A) (A) (A) (A) (A)
                 (A) (A) (A) (A) (A) (A) (A) (A) (A) (A) (A) (A)
                 (A) (A) (A) (A) (A) (A) (A) (A) (A) (A) (A) (A)
                 (A) (A) (A) (A) (A) (A) (A) (A) (A) (A) (A) (A)
                 (A) (A) (A) (A) (A) (A) (A) (A) (A) (A) (A) (A)
                 (A) (A) (A) (A) (A) (A) (A) (A) (A) (A) (A) (A)
                 (A) (A) (A) (A) (A) (A) (A) (A) (A) (A) (A) (A)
                 (A) (A) (A) (A) (A) (A) (A) (A) (A) (A) (A) (A)
                 (A) (A) (A) (A) (A) (A) (A) (A) (A) (A) (A) (A)
                 (A) (A) (A) (A) (A) (A) (A) (A) (A) (A) (A) (A)
                 (A) (A) (A) (A) (A) (A) (A) (A) (A) (A) (A) (A)
                 (A) (A) (A) (A) (A) (A) (A) (A) (A) (A) (A) (A)
                 (A) (A) (A) (A) (A) (A) (A) (A) (A) (A) (A) (A)
                 (A) (A) (A) (A) (A) (A) (A) (A) (A) (A) (A) (A)
                 (A) (A) (A) (A) (A) (A) (A) (A) (A) (A) (A) (A)
                 (A) (A) (A) (A) (A) (A) (A) (A) (A) (A) (A) (A)
                 (A) (A) (A) (A) (A) (A) (A) (A) (A) (A) (A) (A)
                 (A) (A) (A) (A) (A) (A) (A) (A) (A) (A) (A) (A)
                 (A) (A) (A) (A) (A) (A) (A) (A) (A) (A) (A) (A)
                 (A) (A) (A) (A) (A) (A) (A) (A) (A) (A) (A) (A)
                 (A) (A) (A) (A) (A) (A) (A) (A) (A) (A) (A) (A)
                 (A) (A) (A) (A) (A) (A) (A) (A) (A) (A) (A) (A)
                 (A) (A) (A) (A) (A) (A) (A) (A) (A) (A) (A) (A)
                 (A) (A) (A) (A) (A) (A) (A) (A) (A) (A) (A) (A)
                 (A) (A) (A) (A) (A) (A) (A) (A) (A) (A) (A) (A)
                 (A) (A) (A) (A) (A) (A) (A) (A) (A) (A) (A) (A)
                 (A) (A) (A) (A) (A) (A) (A) (A) (A) (A) (A) (A)
                 (A) (A) (A) (A) (A) (A) (A) (A) (A) (A) (A) (A)
                 (A) (A) (A) (A) (A) (A) (A) (A) (A) (A) (A) (A)
                 (A) (A) (A) (A) (A) (A) (A) (A) (A) (A) (A) (A)
                 (A) (A) (A) (A) (A) (A) (A) (A) (A) (A) (A) (A)
                 (A) (A) (A) (A) (A) (A) (A) (A) (A) (A) (A) (A)
                 (A) (A) (A) (A) (A) (A) (A) (A) (A) (A) (A) (A)
                 (A) (A) (A) (A) (A) (A) (A) (A) (A) (A) (A) (A)
                 (A) (A) (A) (A) (A) (A) (A) (A) (A) (A) (A) (A)
                 (A) (A) (A) (A) (A) (A) (A) (A) (A) (A) (A) (A)
                 (A) (A) (A) (A) (A) (A) (A) (A) (A) (A) (A) (A)
                 (A) (A) (A) (A) (A) (A) (A) (A) (A) (A) (A) (A)
                 (A) (A) (A) (A) (A) (A) (A) (A) (A) (A) (A) (A)
                 (A) (A) (A) (A) (A) (A) (A) (A) (A) (A) (A) (A)
                 (A) (A) (A) (A) (A) (A) (A) (A) (A) (A) (A) (A)
                 (A) (A) (A) (A) (A) (A) (A) (A) (A) (A) (A) (A)
                 (A) (A) (A) (A) (A) (A) (A) (A) (A) (A) (A) (A)
                 (A) (A) (A) (A) (A) (A) (A) (A) (A) (A) (A) (A)
                 (A) (A) (A) (A) (A) (A) (A) (A) (A) (A) (A) (A)
                 (A) (A) (A) (A) (A) (A) (A) (A) (A) (A) (A) (A)
                 (A) (A) (A) (A) (A) (A) (A) (A) (A) (A) (A) (A)
                 (A) (A) (A) (A) (A) (A) (A) (A) (A) (A) (A) (A)
                 (A) (A) (A) (A) (A) (A) (A) (A) (A) (A) (A) (A)
                 (A) (A) (A) (A) (A) (A) (A) (A) (A) (A) (A) (A)
                 (A) (A) (A) (A) (A) (A) (A) (A) (A) (A) (A) (A)
                 (A) (A) (A) (A) (A) (A) (A) (A) (A) (A) (A) (A)
                 (A) (A) (A) (A) (A) (A) (A) (A) (A) (A) (A) (A)
                 (A) (A) (A) (A) (A) (A) (A) (A) (A) (A) (A) (A)
                 (A) (A) (A) (A) (A) (A) (A) (A) (A) (A) (A)
 The electronic state is 1-A.
 Alpha  occ. eigenvalues -- -482.84412-482.84362 -88.89186 -88.89096 -62.49663
 Alpha  occ. eigenvalues --  -62.49615 -56.31729 -56.31682 -56.31296 -56.31295
 Alpha  occ. eigenvalues --  -56.31247 -56.31245 -19.16892 -19.16869 -19.13532
 Alpha  occ. eigenvalues --  -19.13520 -19.12855 -19.12846 -19.12355 -19.12348
 Alpha  occ. eigenvalues --  -10.25296 -10.25256 -10.24781 -10.24742 -10.24057
 Alpha  occ. eigenvalues --  -10.24041 -10.23112 -10.23094 -10.22460 -10.22442
 Alpha  occ. eigenvalues --  -10.22245 -10.22230 -10.22012 -10.21976 -10.21944
 Alpha  occ. eigenvalues --  -10.21933 -10.21782 -10.21779 -10.21486 -10.21484
 Alpha  occ. eigenvalues --  -10.19062 -10.18961  -8.70598  -8.70551  -7.97727
 Alpha  occ. eigenvalues --   -7.97646  -6.53814  -6.53772  -6.52398  -6.52389
 Alpha  occ. eigenvalues --   -6.52348  -6.52341  -5.94071  -5.93987  -5.93664
 Alpha  occ. eigenvalues --   -5.93583  -5.93248  -5.93169  -2.64885  -2.64841
 Alpha  occ. eigenvalues --   -2.64484  -2.64474  -2.64439  -2.64430  -2.63352
 Alpha  occ. eigenvalues --   -2.63351  -2.63302  -2.63302  -1.08723  -1.08648
 Alpha  occ. eigenvalues --   -1.05467  -1.05459  -1.04625  -1.04618  -1.03755
 Alpha  occ. eigenvalues --   -1.03734  -0.91058  -0.89645  -0.82515  -0.81072
 Alpha  occ. eigenvalues --   -0.79906  -0.79851  -0.77682  -0.77393  -0.76197
 Alpha  occ. eigenvalues --   -0.74760  -0.74092  -0.72871  -0.71612  -0.69207
 Alpha  occ. eigenvalues --   -0.67243  -0.66777  -0.63675  -0.63440  -0.61833
 Alpha  occ. eigenvalues --   -0.61784  -0.61173  -0.61155  -0.60104  -0.57887
 Alpha  occ. eigenvalues --   -0.56730  -0.55597  -0.55005  -0.52151  -0.52117
 Alpha  occ. eigenvalues --   -0.51996  -0.51847  -0.50682  -0.50652  -0.50553
 Alpha  occ. eigenvalues --   -0.49029  -0.48769  -0.48620  -0.48561  -0.48076
 Alpha  occ. eigenvalues --   -0.47821  -0.47004  -0.45851  -0.45778  -0.45544
 Alpha  occ. eigenvalues --   -0.45386  -0.45303  -0.44770  -0.44640  -0.43639
 Alpha  occ. eigenvalues --   -0.43166  -0.43041  -0.42982  -0.41353  -0.41108
 Alpha  occ. eigenvalues --   -0.40613  -0.40210  -0.39526  -0.38851  -0.38688
 Alpha  occ. eigenvalues --   -0.38132  -0.37712  -0.36844  -0.36393  -0.36349
 Alpha  occ. eigenvalues --   -0.35717  -0.34957  -0.34839  -0.34616  -0.34533
 Alpha  occ. eigenvalues --   -0.34007  -0.33687  -0.33113  -0.33099  -0.32518
 Alpha  occ. eigenvalues --   -0.32513  -0.31972  -0.30724  -0.30364  -0.30044
 Alpha  occ. eigenvalues --   -0.27690  -0.27668  -0.26969  -0.26936  -0.26914
 Alpha  occ. eigenvalues --   -0.26260  -0.26260  -0.25166  -0.24959  -0.19345
 Alpha virt. eigenvalues --   -0.05432  -0.04027  -0.02957  -0.00666   0.01286
 Alpha virt. eigenvalues --    0.01403   0.03953   0.04003   0.04476   0.04551
 Alpha virt. eigenvalues --    0.04561   0.04709   0.04855   0.05069   0.05657
 Alpha virt. eigenvalues --    0.05715   0.06712   0.06775   0.07352   0.08203
 Alpha virt. eigenvalues --    0.08265   0.08375   0.08433   0.08615   0.08978
 Alpha virt. eigenvalues --    0.09071   0.09503   0.09973   0.10622   0.10711
 Alpha virt. eigenvalues --    0.10723   0.10843   0.10856   0.11805   0.12020
 Alpha virt. eigenvalues --    0.12717   0.12823   0.12907   0.12926   0.13850
 Alpha virt. eigenvalues --    0.14138   0.14837   0.14948   0.15080   0.15141
 Alpha virt. eigenvalues --    0.15654   0.16187   0.16255   0.16884   0.17379
 Alpha virt. eigenvalues --    0.18340   0.18467   0.18836   0.19110   0.19956
 Alpha virt. eigenvalues --    0.19990   0.20171   0.20463   0.21170   0.21341
 Alpha virt. eigenvalues --    0.21410   0.21727   0.22473   0.22877   0.23655
 Alpha virt. eigenvalues --    0.24535   0.24795   0.25241   0.25686   0.27022
 Alpha virt. eigenvalues --    0.27712   0.28291   0.28510   0.29336   0.29602
 Alpha virt. eigenvalues --    0.29754   0.30170   0.30742   0.30746   0.30773
 Alpha virt. eigenvalues --    0.31745   0.31914   0.32484   0.32518   0.32571
 Alpha virt. eigenvalues --    0.33269   0.33611   0.33947   0.34050   0.34105
 Alpha virt. eigenvalues --    0.34118   0.34680   0.36129   0.36367   0.38438
 Alpha virt. eigenvalues --    0.38618   0.39000   0.39363   0.39668   0.40265
 Alpha virt. eigenvalues --    0.40363   0.41581   0.41856   0.42454   0.42468
 Alpha virt. eigenvalues --    0.42681   0.43020   0.43629   0.43973   0.44048
 Alpha virt. eigenvalues --    0.44605   0.44708   0.44745   0.44809   0.44923
 Alpha virt. eigenvalues --    0.44955   0.45162   0.45533   0.47458   0.47610
 Alpha virt. eigenvalues --    0.47996   0.48382   0.48554   0.48825   0.49480
 Alpha virt. eigenvalues --    0.49573   0.50130   0.50166   0.50687   0.50700
 Alpha virt. eigenvalues --    0.50926   0.51111   0.51460   0.51951   0.52098
 Alpha virt. eigenvalues --    0.52706   0.53068   0.53136   0.53286   0.54039
 Alpha virt. eigenvalues --    0.54634   0.54684   0.54757   0.55280   0.55553
 Alpha virt. eigenvalues --    0.55846   0.56075   0.56241   0.56640   0.57276
 Alpha virt. eigenvalues --    0.57350   0.57964   0.58085   0.58110   0.58119
 Alpha virt. eigenvalues --    0.58738   0.58850   0.58856   0.59829   0.60032
 Alpha virt. eigenvalues --    0.60463   0.60488   0.60588   0.60945   0.61143
 Alpha virt. eigenvalues --    0.61194   0.61513   0.61648   0.61691   0.62078
 Alpha virt. eigenvalues --    0.62218   0.62501   0.62770   0.62891   0.63175
 Alpha virt. eigenvalues --    0.63408   0.63648   0.64366   0.65443   0.65845
 Alpha virt. eigenvalues --    0.65869   0.66202   0.66533   0.67688   0.67791
 Alpha virt. eigenvalues --    0.69720   0.69835   0.70794   0.71480   0.72112
 Alpha virt. eigenvalues --    0.72323   0.73184   0.73292   0.74411   0.76027
 Alpha virt. eigenvalues --    0.76411   0.78064   0.80224   0.80230   0.80632
 Alpha virt. eigenvalues --    0.81570   0.81867   0.82776   0.83798   0.85558
 Alpha virt. eigenvalues --    0.85656   0.85776   0.86781   0.87276   0.88526
 Alpha virt. eigenvalues --    0.88939   0.89123   0.90330   0.90450   0.90551
 Alpha virt. eigenvalues --    0.91425   0.91565   0.92226   0.92772   0.93804
 Alpha virt. eigenvalues --    0.94213   0.94714   0.95499   0.96106   0.96740
 Alpha virt. eigenvalues --    0.96938   0.97467   0.98558   0.98744   0.99171
 Alpha virt. eigenvalues --    1.00197   1.01746   1.02176   1.02327   1.02486
 Alpha virt. eigenvalues --    1.03097   1.03579   1.04333   1.04506   1.04756
 Alpha virt. eigenvalues --    1.04956   1.04992   1.05368   1.05969   1.06019
 Alpha virt. eigenvalues --    1.06452   1.07084   1.07954   1.08078   1.08184
 Alpha virt. eigenvalues --    1.10815   1.11136   1.12052   1.12244   1.12317
 Alpha virt. eigenvalues --    1.12719   1.13226   1.13594   1.14066   1.16416
 Alpha virt. eigenvalues --    1.18222   1.18681   1.19513   1.22513   1.23121
 Alpha virt. eigenvalues --    1.23765   1.23781   1.24666   1.24748   1.25478
 Alpha virt. eigenvalues --    1.25621   1.25633   1.27396   1.27950   1.28370
 Alpha virt. eigenvalues --    1.32784   1.33281   1.38212   1.40074   1.40326
 Alpha virt. eigenvalues --    1.40899   1.40920   1.42398   1.42791   1.42893
 Alpha virt. eigenvalues --    1.43758   1.43768   1.44896   1.45059   1.45601
 Alpha virt. eigenvalues --    1.45714   1.46011   1.46239   1.46343   1.46367
 Alpha virt. eigenvalues --    1.46815   1.46825   1.47136   1.47150   1.47548
 Alpha virt. eigenvalues --    1.47599   1.48380   1.48780   1.48917   1.49974
 Alpha virt. eigenvalues --    1.50057   1.51046   1.51113   1.51171   1.51607
 Alpha virt. eigenvalues --    1.52781   1.52852   1.53951   1.54251   1.55886
 Alpha virt. eigenvalues --    1.56732   1.57094   1.57113   1.57223   1.57372
 Alpha virt. eigenvalues --    1.57956   1.58493   1.58639   1.58815   1.58933
 Alpha virt. eigenvalues --    1.59259   1.59300   1.59724   1.59975   1.60360
 Alpha virt. eigenvalues --    1.60647   1.60672   1.61002   1.61543   1.61725
 Alpha virt. eigenvalues --    1.62033   1.62597   1.62951   1.63531   1.64691
 Alpha virt. eigenvalues --    1.64722   1.64739   1.65216   1.65239   1.65278
 Alpha virt. eigenvalues --    1.65544   1.65852   1.65881   1.67025   1.68323
 Alpha virt. eigenvalues --    1.68897   1.68901   1.70250   1.70950   1.71751
 Alpha virt. eigenvalues --    1.73161   1.73166   1.74146   1.75422   1.75523
 Alpha virt. eigenvalues --    1.76438   1.76945   1.78088   1.79258   1.79306
 Alpha virt. eigenvalues --    1.79418   1.79639   1.81105   1.81449   1.81741
 Alpha virt. eigenvalues --    1.82292   1.82375   1.82417   1.83546   1.84511
 Alpha virt. eigenvalues --    1.85916   1.87087   1.87359   1.88361   1.88394
 Alpha virt. eigenvalues --    1.89010   1.90442   1.90618   1.92009   1.92428
 Alpha virt. eigenvalues --    1.92631   1.93838   1.95617   1.97318   1.97433
 Alpha virt. eigenvalues --    1.97805   1.98425   1.98699   1.99006   2.01183
 Alpha virt. eigenvalues --    2.01390   2.01452   2.01508   2.02188   2.02282
 Alpha virt. eigenvalues --    2.02938   2.03017   2.03334   2.03783   2.04426
 Alpha virt. eigenvalues --    2.04526   2.05157   2.05595   2.06279   2.07172
 Alpha virt. eigenvalues --    2.07213   2.07304   2.07565   2.08708   2.09575
 Alpha virt. eigenvalues --    2.09739   2.09766   2.10140   2.11331   2.11348
 Alpha virt. eigenvalues --    2.11454   2.13928   2.14733   2.15158   2.16262
 Alpha virt. eigenvalues --    2.16806   2.17508   2.18325   2.19209   2.22302
 Alpha virt. eigenvalues --    2.22458   2.26405   2.26489   2.28965   2.29009
 Alpha virt. eigenvalues --    2.29395   2.29411   2.29531   2.29679   2.31132
 Alpha virt. eigenvalues --    2.31247   2.33529   2.33763   2.34287   2.34332
 Alpha virt. eigenvalues --    2.34692   2.34744   2.35417   2.35427   2.35619
 Alpha virt. eigenvalues --    2.35642   2.35652   2.35669   2.40564   2.40647
 Alpha virt. eigenvalues --    2.40939   2.41566   2.41581   2.41828   2.42205
 Alpha virt. eigenvalues --    2.42239   2.43298   2.43332   2.43985   2.44752
 Alpha virt. eigenvalues --    2.45951   2.45964   2.46143   2.47441   2.48258
 Alpha virt. eigenvalues --    2.48524   2.48919   2.49363   2.50066   2.51119
 Alpha virt. eigenvalues --    2.51488   2.52222   2.53011   2.53073   2.53286
 Alpha virt. eigenvalues --    2.53389   2.53437   2.53996   2.55141   2.56377
 Alpha virt. eigenvalues --    2.57078   2.57137   2.57562   2.58971   2.60007
 Alpha virt. eigenvalues --    2.60443   2.60858   2.60876   2.62961   2.64322
 Alpha virt. eigenvalues --    2.64420   2.70967   2.72589   2.72619   2.73760
 Alpha virt. eigenvalues --    2.73846   2.74534   2.75252   2.77775   2.77803
 Alpha virt. eigenvalues --    2.80254   2.80614   2.80924   2.82089   2.82286
 Alpha virt. eigenvalues --    2.83183   2.83813   2.83876   2.84756   2.85042
 Alpha virt. eigenvalues --    2.85198   2.85769   2.85840   2.86815   2.86936
 Alpha virt. eigenvalues --    2.87423   2.90384   2.90798   2.90822   2.94339
 Alpha virt. eigenvalues --    2.94445   2.94519   2.94859   2.95096   2.98744
 Alpha virt. eigenvalues --    2.98999   3.03384   3.03852   3.04578   3.04722
 Alpha virt. eigenvalues --    3.07004   3.07509   3.07559   3.07996   3.10767
 Alpha virt. eigenvalues --    3.10801   3.13288   3.13325   3.14598   3.14879
 Alpha virt. eigenvalues --    3.16789   3.16939   3.17916   3.18303   3.18754
 Alpha virt. eigenvalues --    3.19160   3.21486   3.21723   3.21801   3.21913
 Alpha virt. eigenvalues --    3.24419   3.25257   3.25479   3.25672   3.26970
 Alpha virt. eigenvalues --    3.27351   3.28152   3.28216   3.31536   3.31582
 Alpha virt. eigenvalues --    3.32796   3.33612   3.33760   3.34460   3.35523
 Alpha virt. eigenvalues --    3.40625   3.43435   3.67754   3.75204   3.75210
 Alpha virt. eigenvalues --    3.75583   3.75586   3.75979   3.76018   3.76585
 Alpha virt. eigenvalues --    3.76596   3.77405   3.77412   3.78512   3.78618
 Alpha virt. eigenvalues --    3.79431   3.79469   3.80468   3.80515   3.80978
 Alpha virt. eigenvalues --    3.83047   3.94052   3.94091   3.94534   3.94786
 Alpha virt. eigenvalues --    3.97320   3.99677   4.01536   4.02525   4.04146
 Alpha virt. eigenvalues --    4.05248   4.08353   4.08937   4.12340   4.12703
 Alpha virt. eigenvalues --    4.12785   4.12822   4.14354   4.14619   4.14863
 Alpha virt. eigenvalues --    4.17125   4.17520   4.19473   4.19503   4.20703
 Alpha virt. eigenvalues --    4.20862   4.25663   4.25728   4.30157   4.30343
 Alpha virt. eigenvalues --    4.30570   4.31491   4.51701   4.52572   4.57536
 Alpha virt. eigenvalues --    4.89713   4.91779   4.94244   4.94259   4.95471
 Alpha virt. eigenvalues --    4.95511   4.96437   4.96460   5.20025   5.20103
 Alpha virt. eigenvalues --    5.24260   5.24465   5.29256   5.29572   5.32112
 Alpha virt. eigenvalues --    5.33542   5.65795   5.65889   5.68808   5.69083
 Alpha virt. eigenvalues --    5.74166   5.74849   5.79093   5.81190   6.46361
[...]
 Alpha  occ. eigenvalues --   -0.56596  -0.55473  -0.54939  -0.52118  -0.52092
 Alpha  occ. eigenvalues --   -0.51969  -0.51831  -0.50660  -0.50632  -0.50395
 Alpha  occ. eigenvalues --   -0.49056  -0.48755  -0.48597  -0.48540  -0.48051
 Alpha  occ. eigenvalues --   -0.47801  -0.47053  -0.45931  -0.45734  -0.45510
 Alpha  occ. eigenvalues --   -0.45379  -0.45284  -0.44842  -0.44790  -0.43588
 Alpha  occ. eigenvalues --   -0.43253  -0.43184  -0.42960  -0.41295  -0.40957
 Alpha  occ. eigenvalues --   -0.40603  -0.40189  -0.39310  -0.38839  -0.38695
 Alpha  occ. eigenvalues --   -0.38185  -0.37676  -0.36784  -0.36402  -0.36358
 Alpha  occ. eigenvalues --   -0.35688  -0.35114  -0.34903  -0.34547  -0.34409
 Alpha  occ. eigenvalues --   -0.33983  -0.33616  -0.33107  -0.33107  -0.32512
 Alpha  occ. eigenvalues --   -0.32512  -0.31836  -0.30584  -0.30459  -0.30079
 Alpha  occ. eigenvalues --   -0.27676  -0.27656  -0.26950  -0.26931  -0.26835
 Alpha  occ. eigenvalues --   -0.26258  -0.26257  -0.25123  -0.24718  -0.19018
 Alpha virt. eigenvalues --   -0.05304  -0.02146  -0.01644  -0.00631   0.01276
 Alpha virt. eigenvalues --    0.01659   0.03972   0.04019   0.04503   0.04555
 Alpha virt. eigenvalues --    0.04566   0.04715   0.04859   0.05165   0.05633
 Alpha virt. eigenvalues --    0.05714   0.06733   0.06797   0.07422   0.08205
 Alpha virt. eigenvalues --    0.08282   0.08393   0.08456   0.08629   0.08968
 Alpha virt. eigenvalues --    0.09341   0.09617   0.09978   0.10632   0.10722
 Alpha virt. eigenvalues --    0.10736   0.10825   0.10866   0.11553   0.12068
 Alpha virt. eigenvalues --    0.12680   0.12834   0.12919   0.12925   0.13876
 Alpha virt. eigenvalues --    0.14165   0.14856   0.15006   0.15114   0.15212
 Alpha virt. eigenvalues --    0.15405   0.16196   0.16265   0.16896   0.17762
 Alpha virt. eigenvalues --    0.18510   0.18561   0.18793   0.19191   0.19897
 Alpha virt. eigenvalues --    0.20030   0.20392   0.20501   0.21147   0.21310
 Alpha virt. eigenvalues --    0.21580   0.21658   0.22456   0.22976   0.23710
 Alpha virt. eigenvalues --    0.24400   0.24615   0.25550   0.25845   0.26900
 Alpha virt. eigenvalues --    0.27990   0.28211   0.28605   0.29557   0.29665
 Alpha virt. eigenvalues --    0.29727   0.30154   0.30742   0.30743   0.31132
 Alpha virt. eigenvalues --    0.31793   0.31964   0.32528   0.32532   0.32596
 Alpha virt. eigenvalues --    0.32811   0.33662   0.33978   0.34114   0.34119
 Alpha virt. eigenvalues --    0.34156   0.34968   0.36017   0.36456   0.38456
 Alpha virt. eigenvalues --    0.38989   0.39073   0.39375   0.39742   0.40218
 Alpha virt. eigenvalues --    0.40278   0.41639   0.41727   0.41966   0.42458
 Alpha virt. eigenvalues --    0.42704   0.43347   0.43636   0.43984   0.44002
 Alpha virt. eigenvalues --    0.44549   0.44665   0.44722   0.44905   0.44917
 Alpha virt. eigenvalues --    0.44946   0.45556   0.45659   0.47724   0.47764
 Alpha virt. eigenvalues --    0.48134   0.48580   0.48850   0.48960   0.49633
 Alpha virt. eigenvalues --    0.50173   0.50269   0.50316   0.50692   0.50711
 Alpha virt. eigenvalues --    0.50973   0.51142   0.51738   0.51982   0.52337
 Alpha virt. eigenvalues --    0.52831   0.53185   0.53311   0.53404   0.54096
 Alpha virt. eigenvalues --    0.54661   0.54797   0.54808   0.55358   0.55595
 Alpha virt. eigenvalues --    0.56381   0.56798   0.56970   0.57230   0.57485
 Alpha virt. eigenvalues --    0.58065   0.58075   0.58170   0.58382   0.58836
 Alpha virt. eigenvalues --    0.58845   0.58915   0.59047   0.59833   0.60145
 Alpha virt. eigenvalues --    0.60439   0.60524   0.60601   0.60917   0.61136
 Alpha virt. eigenvalues --    0.61310   0.61719   0.61743   0.61859   0.62218
 Alpha virt. eigenvalues --    0.62308   0.62386   0.62519   0.62796   0.62975
 Alpha virt. eigenvalues --    0.63802   0.63875   0.64378   0.65576   0.65810
 Alpha virt. eigenvalues --    0.66301   0.66445   0.66573   0.67695   0.67823
 Alpha virt. eigenvalues --    0.69786   0.69950   0.71135   0.71484   0.72114
 Alpha virt. eigenvalues --    0.72325   0.73044   0.73656   0.74877   0.76643
 Alpha virt. eigenvalues --    0.76991   0.78067   0.80213   0.80218   0.80291
 Alpha virt. eigenvalues --    0.81125   0.81620   0.82609   0.83357   0.85793
 Alpha virt. eigenvalues --    0.86140   0.86195   0.86761   0.87191   0.88681
 Alpha virt. eigenvalues --    0.88954   0.89131   0.90407   0.90723   0.90799
 Alpha virt. eigenvalues --    0.91699   0.92093   0.92797   0.93402   0.93659
 Alpha virt. eigenvalues --    0.94724   0.95148   0.95317   0.96749   0.96937
 Alpha virt. eigenvalues --    0.97033   0.98119   0.98612   0.98813   0.99126
 Alpha virt. eigenvalues --    1.00484   1.02214   1.02379   1.02415   1.02504
 Alpha virt. eigenvalues --    1.03313   1.03664   1.04349   1.04622   1.05009
 Alpha virt. eigenvalues --    1.05020   1.05134   1.05980   1.06054   1.06069
 Alpha virt. eigenvalues --    1.06801   1.07400   1.07985   1.08173   1.08744
 Alpha virt. eigenvalues --    1.11059   1.11201   1.12355   1.12453   1.12997
 Alpha virt. eigenvalues --    1.13830   1.14047   1.14656   1.15308   1.16580
 Alpha virt. eigenvalues --    1.18280   1.19438   1.20122   1.22756   1.23090
 Alpha virt. eigenvalues --    1.23290   1.23801   1.24679   1.24755   1.25305
 Alpha virt. eigenvalues --    1.25624   1.25626   1.27485   1.28126   1.28540
 Alpha virt. eigenvalues --    1.32844   1.33371   1.37868   1.39994   1.40435
 Alpha virt. eigenvalues --    1.40905   1.40926   1.42567   1.43035   1.43127
 Alpha virt. eigenvalues --    1.43741   1.43741   1.44895   1.45061   1.45621
 Alpha virt. eigenvalues --    1.45739   1.46022   1.46260   1.46358   1.46359
 Alpha virt. eigenvalues --    1.46815   1.46815   1.47136   1.47137   1.47643
 Alpha virt. eigenvalues --    1.47730   1.48800   1.48887   1.48935   1.49966
 Alpha virt. eigenvalues --    1.50050   1.51129   1.51179   1.51188   1.51874
 Alpha virt. eigenvalues --    1.52801   1.52861   1.54271   1.54908   1.56028
 Alpha virt. eigenvalues --    1.56783   1.57132   1.57140   1.57305   1.57598
 Alpha virt. eigenvalues --    1.57910   1.58511   1.58642   1.58804   1.58934
 Alpha virt. eigenvalues --    1.59274   1.59316   1.59690   1.60056   1.60583
 Alpha virt. eigenvalues --    1.60672   1.60821   1.61033   1.61540   1.62115
 Alpha virt. eigenvalues --    1.62346   1.62582   1.63014   1.63551   1.64708
 Alpha virt. eigenvalues --    1.64910   1.65027   1.65268   1.65289   1.65292
 Alpha virt. eigenvalues --    1.65593   1.65853   1.65862   1.67113   1.68449
 Alpha virt. eigenvalues --    1.68912   1.68912   1.70571   1.70638   1.72071
 Alpha virt. eigenvalues --    1.73146   1.73153   1.74571   1.75443   1.75485
 Alpha virt. eigenvalues --    1.76614   1.76920   1.78693   1.79228   1.79498
 Alpha virt. eigenvalues --    1.79695   1.79780   1.81163   1.81489   1.81554
 Alpha virt. eigenvalues --    1.82181   1.82310   1.82397   1.83710   1.85263
 Alpha virt. eigenvalues --    1.86713   1.87182   1.87357   1.88067   1.88068
 Alpha virt. eigenvalues --    1.88752   1.90955   1.91090   1.92276   1.92564
 Alpha virt. eigenvalues --    1.93319   1.93403   1.96364   1.97428   1.97525
 Alpha virt. eigenvalues --    1.98096   1.98551   1.98806   1.99354   2.01139
 Alpha virt. eigenvalues --    2.01456   2.01492   2.01984   2.02327   2.02688
 Alpha virt. eigenvalues --    2.03124   2.03699   2.03990   2.04446   2.04633
 Alpha virt. eigenvalues --    2.05055   2.05586   2.06062   2.06415   2.07245
 Alpha virt. eigenvalues --    2.07353   2.07786   2.08424   2.08963   2.09746
 Alpha virt. eigenvalues --    2.09751   2.10406   2.10504   2.11420   2.11480
 Alpha virt. eigenvalues --    2.11567   2.14916   2.15379   2.15428   2.15982
 Alpha virt. eigenvalues --    2.16878   2.17571   2.18331   2.19774   2.22296
 Alpha virt. eigenvalues --    2.22427   2.26412   2.26477   2.28991   2.29031
 Alpha virt. eigenvalues --    2.29388   2.29396   2.29473   2.29573   2.31138
 Alpha virt. eigenvalues --    2.31213   2.33596   2.33813   2.34312   2.34321
 Alpha virt. eigenvalues --    2.34722   2.34781   2.35407   2.35413   2.35642
 Alpha virt. eigenvalues --    2.35652   2.35652   2.35678   2.40638   2.40699
 Alpha virt. eigenvalues --    2.41062   2.41574   2.41589   2.41747   2.42217
 Alpha virt. eigenvalues --    2.42250   2.43297   2.43327   2.43954   2.44788
 Alpha virt. eigenvalues --    2.45978   2.45978   2.46142   2.47579   2.48324
 Alpha virt. eigenvalues --    2.48563   2.48972   2.49477   2.50136   2.51285
 Alpha virt. eigenvalues --    2.51664   2.52339   2.53038   2.53080   2.53306
 Alpha virt. eigenvalues --    2.53410   2.53682   2.54107   2.55223   2.56470
 Alpha virt. eigenvalues --    2.57111   2.57144   2.57676   2.59002   2.60071
 Alpha virt. eigenvalues --    2.60529   2.60858   2.60863   2.62887   2.64301
 Alpha virt. eigenvalues --    2.64427   2.70984   2.72598   2.72627   2.73791
 Alpha virt. eigenvalues --    2.73846   2.74713   2.75383   2.77791   2.77819
 Alpha virt. eigenvalues --    2.80450   2.80607   2.80981   2.82055   2.82270
 Alpha virt. eigenvalues --    2.83801   2.83826   2.84140   2.84787   2.85225
 Alpha virt. eigenvalues --    2.85785   2.85788   2.86228   2.86837   2.86981
 Alpha virt. eigenvalues --    2.87776   2.90853   2.90867   2.90879   2.94433
 Alpha virt. eigenvalues --    2.94448   2.94715   2.94764   2.94927   2.98841
 Alpha virt. eigenvalues --    2.99003   3.04243   3.04583   3.04724   3.04857
 Alpha virt. eigenvalues --    3.06968   3.07288   3.07504   3.07548   3.10797
 Alpha virt. eigenvalues --    3.10825   3.13294   3.13297   3.14515   3.14766
 Alpha virt. eigenvalues --    3.16866   3.17017   3.17966   3.18216   3.18425
 Alpha virt. eigenvalues --    3.19505   3.21549   3.21765   3.21787   3.21875
 Alpha virt. eigenvalues --    3.24435   3.25076   3.25534   3.25736   3.27166
 Alpha virt. eigenvalues --    3.27643   3.28154   3.28187   3.31518   3.31524
 Alpha virt. eigenvalues --    3.33012   3.33595   3.33742   3.34564   3.35892
 Alpha virt. eigenvalues --    3.40629   3.43595   3.67993   3.75198   3.75198
 Alpha virt. eigenvalues --    3.75613   3.75613   3.76080   3.76104   3.76628
 Alpha virt. eigenvalues --    3.76633   3.77411   3.77414   3.78589   3.78667
 Alpha virt. eigenvalues --    3.79458   3.79467   3.80477   3.80480   3.81740
 Alpha virt. eigenvalues --    3.83929   3.94079   3.94119   3.94617   3.94814
 Alpha virt. eigenvalues --    3.97450   3.99651   4.01586   4.02501   4.04169
 Alpha virt. eigenvalues --    4.05438   4.08395   4.08937   4.12350   4.12679
 Alpha virt. eigenvalues --    4.12698   4.12835   4.13959   4.14278   4.14545
 Alpha virt. eigenvalues --    4.16978   4.17124   4.20385   4.20408   4.20818
 Alpha virt. eigenvalues --    4.20957   4.25692   4.25871   4.30276   4.30476
 Alpha virt. eigenvalues --    4.32676   4.32712   4.52584   4.53373   4.57567
 Alpha virt. eigenvalues --    4.89792   4.91902   4.94243   4.94253   4.95474
 Alpha virt. eigenvalues --    4.95517   4.96448   4.96459   5.20056   5.20128
 Alpha virt. eigenvalues --    5.24297   5.24498   5.29291   5.29584   5.32227
 Alpha virt. eigenvalues --    5.33680   5.65835   5.65908   5.68858   5.69115
 Alpha virt. eigenvalues --    5.74220   5.74862   5.79161   5.81271   6.48057
 Alpha virt. eigenvalues --    6.49160   7.45375   7.45414   7.50383   7.50860
 Alpha virt. eigenvalues --    7.60725   7.63077   7.79276   7.79640  17.18769
 Alpha virt. eigenvalues --   17.20726  17.42817  17.44120  17.48060  17.52291
 Alpha virt. eigenvalues --   23.36183  23.54008  23.68026  23.77001  23.77078
 Alpha virt. eigenvalues --   23.77756  23.77765  23.78254  23.78263  23.78944
 Alpha virt. eigenvalues --   23.79247  23.79618  23.79854  23.79921  23.80759
 Alpha virt. eigenvalues --   23.80763  23.85857  23.85857  24.02285  24.02544
 Alpha virt. eigenvalues --   24.11715  24.11981  47.76876  47.77723  49.87790
 Alpha virt. eigenvalues --   49.87795  49.90352  49.90356  49.91613  49.92289
 Alpha virt. eigenvalues --   49.92491  49.92712 188.90169 188.90863 289.65104
 Alpha virt. eigenvalues --  289.65144 289.69999 289.70488 289.83031 289.84915
 Alpha virt. eigenvalues -- 1020.518191020.52872
          Condensed to atoms (all electrons):
 Mulliken charges:
               1
     1  C   -0.237697
     2  C    0.247210
     3  C   -0.031994
     4  C   -0.361148
     5  S    0.379253
     6  O   -0.385479
     7  H    0.123956
     8  C   -0.237726
     9  C    0.247213
    10  C   -0.032012
    11  C   -0.361141
    12  S    0.379252
    13  O   -0.385464
    14  H    0.123953
    15  C   -0.047851
    16  H    0.120741
    17  H    0.120742
    18  C    0.015490
    19  H    0.107169
    20  H    0.107162
    21  O   -0.392176
    22  C   -0.000905
    23  H    0.100182
    24  H    0.100183
    25  C    0.003066
    26  H    0.096795
    27  H    0.096796
    28  O   -0.389880
    29  C    0.000116
    30  H    0.098056
    31  H    0.098059
    32  C   -0.007841
    33  H    0.094408
    34  H    0.094404
    35  O   -0.370469
    36  C   -0.102166
    37  H    0.089518
    38  H    0.115848
    39  H    0.089518
    40  C   -0.047852
    41  H    0.120737
    42  H    0.120743
    43  C    0.015485
    44  H    0.107165
    45  H    0.107163
    46  O   -0.392174
    47  C   -0.000906
    48  H    0.100180
    49  H    0.100185
    50  C    0.003066
    51  H    0.096794
    52  H    0.096797
    53  O   -0.389879
    54  C    0.000117
    55  H    0.098056
    56  H    0.098058
    57  C   -0.007840
    58  H    0.094407
    59  H    0.094404
    60  O   -0.370470
    61  C   -0.102166
    62  H    0.089519
    63  H    0.115848
    64  H    0.089517
    65  Br   0.028958
    66  Br   0.028948
 Sum of Mulliken charges =  -0.00000
 Mulliken charges with hydrogens summed into heavy atoms:
               1
     1  C   -0.237697
     2  C    0.247210
     3  C    0.091962
     4  C   -0.361148
     5  S    0.379253
     6  O   -0.385479
     8  C   -0.237726
     9  C    0.247213
    10  C    0.091941
    11  C   -0.361141
    12  S    0.379252
    13  O   -0.385464
    15  C    0.193631
    18  C    0.229820
    21  O   -0.392176
    22  C    0.199460
    25  C    0.196657
    28  O   -0.389880
    29  C    0.196231
    32  C    0.180972
    35  O   -0.370469
    36  C    0.192718
    40  C    0.193628
    43  C    0.229813
    46  O   -0.392174
    47  C    0.199459
    50  C    0.196657
    53  O   -0.389879
    54  C    0.196231
    57  C    0.180971
    60  O   -0.370470
    61  C    0.192718
    65  Br   0.028958
    66  Br   0.028948
 Electronic spatial extent (au):  <R**2>=          63774.0016
 Charge=              0.0000 electrons
 Dipole moment (field-independent basis, Debye):
    X=              0.0000    Y=              0.0003    Z=             -0.0006  Tot=              0.0007
 Quadrupole moment (field-independent basis, Debye-Ang):
   XX=           -193.7205   YY=           -245.5282   ZZ=           -245.2363
   XY=            -14.9054   XZ=              0.0005   YZ=              0.0017
 Traceless Quadrupole moment (field-independent basis, Debye-Ang):
   XX=             34.4412   YY=            -17.3666   ZZ=            -17.0746
   XY=            -14.9054   XZ=              0.0005   YZ=              0.0017
 Octapole moment (field-independent basis, Debye-Ang**2):
  XXX=              0.0005  YYY=             -0.0012  ZZZ=              0.0296  XYY=              0.0066
  XXY=             -0.0047  XXZ=              0.0178  XZZ=              0.0008  YZZ=              0.0005
  YYZ=              0.0162  XYZ=              0.0307
 Hexadecapole moment (field-independent basis, Debye-Ang**3):
 XXXX=         -59740.4258 YYYY=          -7975.6552 ZZZZ=           -369.8422 XXXY=          -4522.1788
 XXXZ=              0.1147 YYYX=           -127.1845 YYYZ=              0.1095 ZZZX=              0.0560
 ZZZY=              0.1929 XXYY=         -13262.8828 XXZZ=         -11931.8248 YYZZ=          -1467.5619
 XXYZ=              0.1607 YYXZ=              0.0308 ZZXY=            -39.6061
 N-N= 4.675766322122D+03 E-N=-2.696228451003D+04  KE= 7.391792728464D+03
 No NMR shielding tensors so no spin-rotation constants.
 Leave Link  601 at Thu Jan 16 14:27:53 2020, MaxMem=  6710886400 cpu:              14.1 elap:               1.0
 (Enter /apps/gaussian/g16-a03/l9999.exe)
 1\1\GINC-CX1-141-15-3\FOpt\RB3LYP\6-311G(d,p)\C22H32Br2O8S2\NS5018\16-
 Jan-2020\0\\#p opt b3lyp/6-311g(d,p)\\3G_1m_0sc_Br_opt_pop.gjf\\0,1\C,
 0.1503126917,0.7054839456,0.0011080549\C,1.3937575701,1.3152407002,0.0
 012290297\C,1.356674557,2.7389089957,0.0012283623\C,0.0740309574,3.201
 4628045,0.0011103572\S,-1.1111764462,1.9382242247,0.0014367778\O,2.517
 0406704,0.5450911455,0.0013532133\H,2.2237123189,3.3813119926,0.001237
 889\C,-0.1474414971,-0.7045875274,0.0009160138\C,-1.3908318024,-1.3144
 070266,0.0007089072\C,-1.353663507,-2.7380982849,0.0008895969\C,-0.070
 9915562,-3.2006423193,0.0013589136\S,1.1140997233,-1.9373064634,0.0005
 387078\O,-2.5141233492,-0.5442920455,0.0005347046\H,-2.2206874293,-3.3
 805086985,0.0009393758\C,3.7865731055,1.1970899363,0.0009089156\H,3.89
 77444441,1.8242908242,0.8918748984\H,3.8972051654,1.8240954295,-0.8902
 702691\C,4.8454718521,0.1086863124,0.0007288449\H,4.7292430543,-0.5261
 909557,0.8900283544\H,4.7288549838,-0.5262948041,-0.8884445939\O,6.098
 2978846,0.7632683338,0.0004185802\C,7.2012863684,-0.1274459984,0.00019
 77264\H,7.1841931814,-0.7730823708,0.8891324119\H,7.1837968661,-0.7731
 346266,-0.8886916245\C,8.4669644565,0.7115155608,-0.0001132525\H,8.483
 0495791,1.3583887644,0.888633639\H,8.482628127,1.3583651187,-0.8888749
 129\O,9.5649463379,-0.1798865041,-0.0003605695\C,10.8217030019,0.47348
 43134,-0.0005625876\H,10.9341271472,1.1103041442,0.8881311815\H,10.933
 9303068,1.1101522569,-0.8894026696\C,11.8968333383,-0.5986629614,-0.00
 06079422\H,11.7822919607,-1.2368386244,-0.8893091722\H,11.7826405929,-
 1.236580025,0.8883237079\O,13.1496352123,0.0559714863,-0.0009449399\C,
 14.2406806997,-0.8416325374,-0.0009859162\H,14.235415735,-1.4844088487
 ,-0.8930988651\H,15.151689669,-0.242599537,-0.0012562851\H,14.23574025
 81,-1.4840966309,0.8913538215\C,-3.7836240948,-1.1963247889,0.00033117
 07\H,-3.8946579056,-1.8234430786,0.8913799751\H,-3.894400784,-1.823417
 9882,-0.8907556768\C,-4.8425518284,-0.1079415301,0.0002022175\H,-4.726
 2587694,0.5269836154,0.8894521177\H,-4.7260228888,0.526993176,-0.88902
 12717\O,-6.0953587427,-0.7625599474,0.000035451\C,-7.1983676109,0.1281
 273902,-0.0001219269\H,-7.1811937214,0.7738281468,0.8887714898\H,-7.18
 09947332,0.7737567049,-0.8890556263\C,-8.4640205055,-0.7108745404,-0.0
 002316712\H,-8.4799856707,-1.3576889105,0.888561502\H,-8.479762425,-1.
 3577883012,-0.8889461485\O,-9.5620292979,0.180493914,-0.0004166746\C,-
 10.8187657212,-0.4729138998,-0.000393378\H,-10.9310675054,-1.109629634
 2,0.8883998675\H,-10.9310779277,-1.1096941814,-0.8891414768\C,-11.8939
 204531,0.5992049711,-0.0004419546\H,-11.7795111298,1.2372644323,-0.889
 2437624\H,-11.7796238622,1.237248517,0.8883874118\O,-13.146709173,-0.0
 554541863,-0.0005242546\C,-14.2377784695,0.8421202367,-0.0005683249\H,
 -14.2326668178,1.4847267392,-0.8928044494\H,-15.148768416,0.2430588922
 ,-0.0005822596\H,-14.2327171931,1.4847534078,0.891648548\Br,-0.4624870
 094,5.013623507,0.0009417992\Br,0.4655086868,-5.0128800534,0.002056190
 7\\Version=ES64L-G16RevA.03\State=1-A\HF=-7404.3568618\RMSD=4.436e-09\
 RMSF=2.107e-05\Dipole=0.0000194,0.0001103,-0.0002403\Quadrupole=25.312
 8023,-12.6182506,-12.6945517,-11.576686,0.0003682,0.0012515\PG=C01 [X(
 C22H32Br2O8S2)]\\@


 HE THAT FOLLOWS NATURE IS NEVER LOST.

                             -- BACON
 Job cpu time:       0 days  5 hours 17 minutes 54.6 seconds.
 Elapsed time:       0 days  0 hours 19 minutes 58.2 seconds.
 File lengths (MBytes):  RWF=    469 Int=      0 D2E=      0 Chk=     57 Scr=      1
 Normal termination of Gaussian 16 at Thu Jan 16 14:27:53 2020.
