 Entering Gaussian System, Link 0=g16
 Input=O3G_1m_0sc_Br_pop.gjf
 Output=O3G_1m_0sc_Br_pop.log
 Initial command:
 /apps/gaussian/g16-a03/l1.exe "/tmp/pbs.969830.pbs/Gau-16034.inp" -scrdir="/tmp/pbs.969830.pbs/"
 Entering Link 1 = /apps/gaussian/g16-a03/l1.exe PID=     16035.
  
 Copyright (c) 1988,1990,1992,1993,1995,1998,2003,2009,2016,
            Gaussian, Inc.  All Rights Reserved.
  
 This is part of the Gaussian(R) 16 program.  It is based on
 the Gaussian(R) 09 system (copyright 2009, Gaussian, Inc.),
 the Gaussian(R) 03 system (copyright 2003, Gaussian, Inc.),
 the Gaussian(R) 98 system (copyright 1998, Gaussian, Inc.),
 the Gaussian(R) 94 system (copyright 1995, Gaussian, Inc.),
 the Gaussian 92(TM) system (copyright 1992, Gaussian, Inc.),
 the Gaussian 90(TM) system (copyright 1990, Gaussian, Inc.),
 the Gaussian 88(TM) system (copyright 1988, Gaussian, Inc.),
 the Gaussian 86(TM) system (copyright 1986, Carnegie Mellon
 University), and the Gaussian 82(TM) system (copyright 1983,
 Carnegie Mellon University). Gaussian is a federally registered
 trademark of Gaussian, Inc.
  
 This software contains proprietary and confidential information,
 including trade secrets, belonging to Gaussian, Inc.
  
 This software is provided under written license and may be
 used, copied, transmitted, or stored only in accord with that
 written license.
  
 The following legend is applicable only to US Government
 contracts under FAR:
  
                    RESTRICTED RIGHTS LEGEND
  
 Use, reproduction and disclosure by the US Government is
 subject to restrictions as set forth in subparagraphs (a)
 and (c) of the Commercial Computer Software - Restricted
 Rights clause in FAR 52.227-19.
  
 Gaussian, Inc.
 340 Quinnipiac St., Bldg. 40, Wallingford CT 06492
  
  
 ---------------------------------------------------------------
 Warning -- This program may not be used in any manner that
 competes with the business of Gaussian, Inc. or will provide
 assistance to any competitor of Gaussian, Inc.  The licensee
 of this program is prohibited from giving any competitor of
 Gaussian, Inc. access to this program.  By using this program,
 the user acknowledges that Gaussian, Inc. is engaged in the
 business of creating and licensing software in the field of
 computational chemistry and represents and warrants to the
 licensee that it is not a competitor of Gaussian, Inc. and that
 it will not use this program in any manner prohibited above.
 ---------------------------------------------------------------
  

 Cite this work as:
 Gaussian 16, Revision A.03,
 M. J. Frisch, G. W. Trucks, H. B. Schlegel, G. E. Scuseria, 
 M. A. Robb, J. R. Cheeseman, G. Scalmani, V. Barone, 
 G. A. Petersson, H. Nakatsuji, X. Li, M. Caricato, A. V. Marenich, 
 J. Bloino, B. G. Janesko, R. Gomperts, B. Mennucci, H. P. Hratchian, 
 J. V. Ortiz, A. F. Izmaylov, J. L. Sonnenberg, D. Williams-Young, 
 F. Ding, F. Lipparini, F. Egidi, J. Goings, B. Peng, A. Petrone, 
 T. Henderson, D. Ranasinghe, V. G. Zakrzewski, J. Gao, N. Rega, 
 G. Zheng, W. Liang, M. Hada, M. Ehara, K. Toyota, R. Fukuda, 
 J. Hasegawa, M. Ishida, T. Nakajima, Y. Honda, O. Kitao, H. Nakai, 
 T. Vreven, K. Throssell, J. A. Montgomery, Jr., J. E. Peralta, 
 F. Ogliaro, M. J. Bearpark, J. J. Heyd, E. N. Brothers, K. N. Kudin, 
 V. N. Staroverov, T. A. Keith, R. Kobayashi, J. Normand, 
 K. Raghavachari, A. P. Rendell, J. C. Burant, S. S. Iyengar, 
 J. Tomasi, M. Cossi, J. M. Millam, M. Klene, C. Adamo, R. Cammi, 
 J. W. Ochterski, R. L. Martin, K. Morokuma, O. Farkas, 
 J. B. Foresman, and D. J. Fox, Gaussian, Inc., Wallingford CT, 2016.
 
 ******************************************
 Gaussian 16:  ES64L-G16RevA.03 25-Dec-2016
                17-Jan-2020 
 ******************************************
 %mem=50GB
 %nprocshared=4
 Will use up to    4 processors via shared memory.
 ------------------------------
 #p pop=MKUFF b3lyp/6-311g(d,p)
 ------------------------------
 1/38=1,172=1/1;
 2/12=2,17=6,18=5,40=1/2;
 3/5=4,6=6,7=101,11=2,25=1,30=1,74=-5/1,2,3;
 4//1;
 5/5=2,38=5/2;
 6/7=2,8=2,9=2,10=2,15=8,20=4,28=1/1,2;
 99/5=1,9=1/99;
 Leave Link    1 at Fri Jan 17 12:56:49 2020, MaxMem=  6710886400 cpu:               0.1 elap:               0.0
 (Enter /apps/gaussian/g16-a03/l101.exe)
 ------------------------
 3G_1m_0sc_Br_opt_pop.gjf
 ------------------------
 Symbolic Z-matrix:
 Charge =  0 Multiplicity = 1
 C                     0.152     0.706    -0.001 
 C                     1.398     1.313    -0.001 
 C                     1.356     2.736    -0.001 
 C                     0.078     3.212    -0.001 
 S                    -1.096     1.945    -0.001 
 O                     2.523     0.542     0. 
 H                     2.229     3.372     0. 
 C                    -0.152    -0.706    -0.001 
 C                    -1.398    -1.313    -0.001 
 C                    -1.357    -2.736    -0.001 
 C                    -0.078    -3.212    -0.001 
 S                     1.096    -1.946     0. 
 O                    -2.523    -0.542    -0.001 
 H                    -2.229    -3.373    -0.001 
 C                     3.788     1.197     0. 
 H                     3.899     1.826     0.89 
 H                     3.899     1.826    -0.891 
 C                     4.85      0.113     0. 
 H                     4.735    -0.523     0.889 
 H                     4.735    -0.523    -0.889 
 O                     6.104     0.768     0. 
 C                     7.206    -0.122     0. 
 H                     7.189    -0.768     0.889 
 H                     7.189    -0.768    -0.889 
 C                     8.472     0.716     0. 
 H                     8.487     1.363     0.889 
 H                     8.488     1.363    -0.888 
 O                     9.571    -0.174     0. 
 C                     10.827    0.48      0.001 
 H                     10.938    1.117     0.889 
 H                     10.939    1.117    -0.888 
 C                     11.903   -0.591     0.001 
 H                     11.789   -1.229    -0.888 
 H                     11.789   -1.229     0.89 
 O                     13.155    0.064     0.001 
 C                     14.246   -0.833     0.001 
 H                     14.242   -1.476    -0.891 
 H                     15.157   -0.234     0.001 
 H                     14.242   -1.476     0.893 
 C                    -3.788    -1.198    -0.001 
 H                    -3.899    -1.826     0.89 
 H                    -3.899    -1.826    -0.891 
 C                    -4.85     -0.113     0. 
 H                    -4.735     0.522     0.889 
 H                    -4.735     0.522    -0.89 
 O                    -6.104    -0.768     0. 
 C                    -7.206     0.122     0. 
 H                    -7.189     0.769     0.889 
 H                    -7.189     0.768    -0.889 
 C                    -8.472    -0.716     0. 
 H                    -8.488    -1.363     0.889 
 H                    -8.488    -1.363    -0.888 
 O                    -9.571     0.175     0. 
 C                    -10.827   -0.479     0.001 
 H                    -10.938   -1.116     0.89 
 H                    -10.939   -1.116    -0.888 
 C                    -11.902    0.592     0.001 
 H                    -11.789    1.23     -0.888 
 H                    -11.788    1.23      0.89 
 O                    -13.155   -0.063     0.001 
 C                    -14.246    0.834     0.001 
 H                    -14.242    1.477    -0.891 
 H                    -15.157    0.235     0.002 
 H                    -14.241    1.477     0.893 
 Br                   -0.15709   5.12763   0.00008 
 Br                    0.25293  -5.11342   0.00024 
 
 ITRead=  0  0  0  0  0  0  0  0  0  0  0  0  0  0  0  0  0  0  0  0
 ITRead=  0  0  0  0  0  0  0  0  0  0  0  0  0  0  0  0  0  0  0  0
 ITRead=  0  0  0  0  0  0  0  0  0  0  0  0  0  0  0  0  0  0  0  0
 ITRead=  0  0  0  0  0  0
 MicOpt= -1 -1 -1 -1 -1 -1 -1 -1 -1 -1 -1 -1 -1 -1 -1 -1 -1 -1 -1 -1
 MicOpt= -1 -1 -1 -1 -1 -1 -1 -1 -1 -1 -1 -1 -1 -1 -1 -1 -1 -1 -1 -1
 MicOpt= -1 -1 -1 -1 -1 -1 -1 -1 -1 -1 -1 -1 -1 -1 -1 -1 -1 -1 -1 -1
 MicOpt= -1 -1 -1 -1 -1 -1
 NAtoms=     66 NQM=       66 NQMF=       0 NMMI=      0 NMMIF=      0
                NMic=       0 NMicF=      0.
                    Isotopes and Nuclear Properties:
 (Nuclear quadrupole moments (NQMom) in fm**2, nuclear magnetic moments (NMagM)
  in nuclear magnetons)

  Atom         1           2           3           4           5           6           7           8           9          10
 IAtWgt=          12          12          12          12          32          16           1          12          12          12
 AtmWgt=  12.0000000  12.0000000  12.0000000  12.0000000  31.9720718  15.9949146   1.0078250  12.0000000  12.0000000  12.0000000
 NucSpn=           0           0           0           0           0           0           1           0           0           0
 AtZEff=  -0.0000000  -0.0000000  -0.0000000  -0.0000000  -0.0000000  -0.0000000  -0.0000000  -0.0000000  -0.0000000  -0.0000000
 NQMom=    0.0000000   0.0000000   0.0000000   0.0000000   0.0000000   0.0000000   0.0000000   0.0000000   0.0000000   0.0000000
 NMagM=    0.0000000   0.0000000   0.0000000   0.0000000   0.0000000   0.0000000   2.7928460   0.0000000   0.0000000   0.0000000
 AtZNuc=   6.0000000   6.0000000   6.0000000   6.0000000  16.0000000   8.0000000   1.0000000   6.0000000   6.0000000   6.0000000

  Atom        11          12          13          14          15          16          17          18          19          20
 IAtWgt=          12          32          16           1          12           1           1          12           1           1
 AtmWgt=  12.0000000  31.9720718  15.9949146   1.0078250  12.0000000   1.0078250   1.0078250  12.0000000   1.0078250   1.0078250
 NucSpn=           0           0           0           1           0           1           1           0           1           1
 AtZEff=  -0.0000000  -0.0000000  -0.0000000  -0.0000000  -0.0000000  -0.0000000  -0.0000000  -0.0000000  -0.0000000  -0.0000000
 NQMom=    0.0000000   0.0000000   0.0000000   0.0000000   0.0000000   0.0000000   0.0000000   0.0000000   0.0000000   0.0000000
 NMagM=    0.0000000   0.0000000   0.0000000   2.7928460   0.0000000   2.7928460   2.7928460   0.0000000   2.7928460   2.7928460
 AtZNuc=   6.0000000  16.0000000   8.0000000   1.0000000   6.0000000   1.0000000   1.0000000   6.0000000   1.0000000   1.0000000

  Atom        21          22          23          24          25          26          27          28          29          30
 IAtWgt=          16          12           1           1          12           1           1          16          12           1
 AtmWgt=  15.9949146  12.0000000   1.0078250   1.0078250  12.0000000   1.0078250   1.0078250  15.9949146  12.0000000   1.0078250
 NucSpn=           0           0           1           1           0           1           1           0           0           1
 AtZEff=  -0.0000000  -0.0000000  -0.0000000  -0.0000000  -0.0000000  -0.0000000  -0.0000000  -0.0000000  -0.0000000  -0.0000000
 NQMom=    0.0000000   0.0000000   0.0000000   0.0000000   0.0000000   0.0000000   0.0000000   0.0000000   0.0000000   0.0000000
 NMagM=    0.0000000   0.0000000   2.7928460   2.7928460   0.0000000   2.7928460   2.7928460   0.0000000   0.0000000   2.7928460
 AtZNuc=   8.0000000   6.0000000   1.0000000   1.0000000   6.0000000   1.0000000   1.0000000   8.0000000   6.0000000   1.0000000

  Atom        31          32          33          34          35          36          37          38          39          40
 IAtWgt=           1          12           1           1          16          12           1           1           1          12
 AtmWgt=   1.0078250  12.0000000   1.0078250   1.0078250  15.9949146  12.0000000   1.0078250   1.0078250   1.0078250  12.0000000
 NucSpn=           1           0           1           1           0           0           1           1           1           0
 AtZEff=  -0.0000000  -0.0000000  -0.0000000  -0.0000000  -0.0000000  -0.0000000  -0.0000000  -0.0000000  -0.0000000  -0.0000000
 NQMom=    0.0000000   0.0000000   0.0000000   0.0000000   0.0000000   0.0000000   0.0000000   0.0000000   0.0000000   0.0000000
 NMagM=    2.7928460   0.0000000   2.7928460   2.7928460   0.0000000   0.0000000   2.7928460   2.7928460   2.7928460   0.0000000
 AtZNuc=   1.0000000   6.0000000   1.0000000   1.0000000   8.0000000   6.0000000   1.0000000   1.0000000   1.0000000   6.0000000

  Atom        41          42          43          44          45          46          47          48          49          50
 IAtWgt=           1           1          12           1           1          16          12           1           1          12
 AtmWgt=   1.0078250   1.0078250  12.0000000   1.0078250   1.0078250  15.9949146  12.0000000   1.0078250   1.0078250  12.0000000
 NucSpn=           1           1           0           1           1           0           0           1           1           0
 AtZEff=  -0.0000000  -0.0000000  -0.0000000  -0.0000000  -0.0000000  -0.0000000  -0.0000000  -0.0000000  -0.0000000  -0.0000000
 NQMom=    0.0000000   0.0000000   0.0000000   0.0000000   0.0000000   0.0000000   0.0000000   0.0000000   0.0000000   0.0000000
 NMagM=    2.7928460   2.7928460   0.0000000   2.7928460   2.7928460   0.0000000   0.0000000   2.7928460   2.7928460   0.0000000
 AtZNuc=   1.0000000   1.0000000   6.0000000   1.0000000   1.0000000   8.0000000   6.0000000   1.0000000   1.0000000   6.0000000

  Atom        51          52          53          54          55          56          57          58          59          60
 IAtWgt=           1           1          16          12           1           1          12           1           1          16
 AtmWgt=   1.0078250   1.0078250  15.9949146  12.0000000   1.0078250   1.0078250  12.0000000   1.0078250   1.0078250  15.9949146
 NucSpn=           1           1           0           0           1           1           0           1           1           0
 AtZEff=  -0.0000000  -0.0000000  -0.0000000  -0.0000000  -0.0000000  -0.0000000  -0.0000000  -0.0000000  -0.0000000  -0.0000000
 NQMom=    0.0000000   0.0000000   0.0000000   0.0000000   0.0000000   0.0000000   0.0000000   0.0000000   0.0000000   0.0000000
 NMagM=    2.7928460   2.7928460   0.0000000   0.0000000   2.7928460   2.7928460   0.0000000   2.7928460   2.7928460   0.0000000
 AtZNuc=   1.0000000   1.0000000   8.0000000   6.0000000   1.0000000   1.0000000   6.0000000   1.0000000   1.0000000   8.0000000

  Atom        61          62          63          64          65          66
 IAtWgt=          12           1           1           1          79          79
 AtmWgt=  12.0000000   1.0078250   1.0078250   1.0078250  78.9183361  78.9183361
 NucSpn=           0           1           1           1           3           3
 AtZEff=  -0.0000000  -0.0000000  -0.0000000  -0.0000000  -0.0000000  -0.0000000
 NQMom=    0.0000000   0.0000000   0.0000000   0.0000000  31.3000000  31.3000000
 NMagM=    0.0000000   2.7928460   2.7928460   2.7928460   2.1063990   2.1063990
 AtZNuc=   6.0000000   1.0000000   1.0000000   1.0000000  35.0000000  35.0000000
 Leave Link  101 at Fri Jan 17 12:56:50 2020, MaxMem=  6710886400 cpu:               1.1 elap:               0.3
 (Enter /apps/gaussian/g16-a03/l202.exe)
 Stoichiometry    C22H32Br2O8S2
 Framework group  C1[X(C22H32Br2O8S2)]
 Deg. of freedom   192
 Full point group                 C1      NOp   1
 Largest Abelian subgroup         C1      NOp   1
 Largest concise Abelian subgroup C1      NOp   1
                         Standard orientation:                         
 ---------------------------------------------------------------------
 Center     Atomic      Atomic             Coordinates (Angstroms)
 Number     Number       Type             X           Y           Z
 ---------------------------------------------------------------------
      1          6           0        0.138010    0.705200   -0.000991
      2          6           0        1.380700    1.318947   -0.000991
      3          6           0        1.330985    2.741699   -0.000991
      4          6           0        0.050422    3.210762   -0.000991
      5         16           0       -1.116690    1.937414   -0.000991
      6          8           0        2.509864    0.554059    0.000009
      7          1           0        2.200523    3.382423    0.000009
      8          6           0       -0.158329   -0.708428   -0.000991
      9          6           0       -1.401019   -1.322175   -0.000991
     10          6           0       -1.352304   -2.744932   -0.000991
     11          6           0       -0.070741   -3.213990   -0.000991
     12         16           0        1.096377   -1.941642    0.000009
     13          8           0       -2.530183   -0.557287   -0.000991
     14          1           0       -2.220837   -3.386651   -0.000991
     15          6           0        3.771294    1.215909    0.000009
     16          1           0        3.878882    1.845501    0.890009
     17          1           0        3.878882    1.845501   -0.890991
     18          6           0        4.839156    0.137683    0.000009
     19          1           0        4.727607   -0.498931    0.889009
     20          1           0        4.727607   -0.498931   -0.888991
     21          8           0        6.089586    0.799474    0.000009
     22          6           0        7.196396   -0.084538    0.000009
     23          1           0        7.182899   -0.730620    0.889009
     24          1           0        7.182899   -0.730620   -0.888991
     25          6           0        8.457833    0.760315    0.000009
     26          1           0        8.469325    1.407387    0.889009
     27          1           0        8.470325    1.407392   -0.887991
     28          8           0        9.561643   -0.123713    0.000009
     29          6           0       10.814079    0.537088    0.001009
     30          1           0       10.921623    1.174681    0.889009
     31          1           0       10.922623    1.174686   -0.887991
     32          6           0       11.895870   -0.528061    0.001009
     33          1           0       11.785331   -1.166670   -0.887991
     34          1           0       11.785331   -1.166670    0.890009
     35          8           0       13.144300    0.133718    0.001009
     36          6           0       14.240148   -0.757353    0.001009
     37          1           0       14.239635   -1.400365   -0.890991
     38          1           0       15.147887   -0.153422    0.001009
     39          1           0       14.239635   -1.400365    0.893009
     40          6           0       -3.791608   -1.220137   -0.000991
     41          1           0       -3.899201   -1.848729    0.890009
     42          1           0       -3.899201   -1.848729   -0.890991
     43          6           0       -4.859475   -0.140911    0.000009
     44          1           0       -4.747920    0.494703    0.889009
     45          1           0       -4.747920    0.494703   -0.889991
     46          8           0       -6.109905   -0.802702    0.000009
     47          6           0       -7.216715    0.081310    0.000009
     48          1           0       -7.203224    0.728392    0.889009
     49          1           0       -7.203218    0.727393   -0.888991
     50          6           0       -8.478152   -0.763543    0.000009
     51          1           0       -8.490644   -1.410620    0.889009
     52          1           0       -8.490644   -1.410620   -0.887991
     53          8           0       -9.581968    0.121485    0.000009
     54          6           0      -10.834403   -0.539316    0.001009
     55          1           0      -10.941947   -1.176909    0.890009
     56          1           0      -10.942947   -1.176914   -0.887991
     57          6           0      -11.915195    0.525839    0.001009
     58          1           0      -11.805656    1.164442   -0.887991
     59          1           0      -11.804656    1.164448    0.890009
     60          8           0      -13.164624   -0.135946    0.001009
     61          6           0      -14.260472    0.755125    0.001009
     62          1           0      -14.259959    1.398137   -0.890991
     63          1           0      -15.168211    0.151194    0.002009
     64          1           0      -14.258959    1.398143    0.893009
     65         35           0       -0.195047    5.125088    0.000085
     66         35           0        0.270491   -5.113584    0.000249
 ---------------------------------------------------------------------
 Rotational constants (GHZ):           0.0999270           0.0180453           0.0153058
 Leave Link  202 at Fri Jan 17 12:56:50 2020, MaxMem=  6710886400 cpu:               0.0 elap:               0.0
 (Enter /apps/gaussian/g16-a03/l301.exe)
 Standard basis: 6-311G(d,p) (5D, 7F)
 Ernie: Thresh=  0.10000D-02 Tol=  0.10000D-05 Strict=F.
 There are   910 symmetry adapted cartesian basis functions of A   symmetry.
 There are   872 symmetry adapted basis functions of A   symmetry.
   872 basis functions,  1488 primitive gaussians,   910 cartesian basis functions
   165 alpha electrons      165 beta electrons
       nuclear repulsion energy      4655.6387077810 Hartrees.
 IExCor=  402 DFT=T Ex+Corr=B3LYP ExCW=0 ScaHFX=  0.200000
 ScaDFX=  0.800000  0.720000  1.000000  0.810000 ScalE2=  1.000000  1.000000
 IRadAn=      5 IRanWt=     -1 IRanGd=            0 ICorTp=0 IEmpDi=  4
 NAtoms=   66 NActive=   66 NUniq=   66 SFac= 1.00D+00 NAtFMM=   60 NAOKFM=T Big=T
 Integral buffers will be    131072 words long.
 Raffenetti 2 integral format.
 Two-electron integral symmetry is turned on.
 Leave Link  301 at Fri Jan 17 12:56:50 2020, MaxMem=  6710886400 cpu:               0.2 elap:               0.1
 (Enter /apps/gaussian/g16-a03/l302.exe)
 NPDir=0 NMtPBC=     1 NCelOv=     1 NCel=       1 NClECP=     1 NCelD=      1
         NCelK=      1 NCelE2=     1 NClLst=     1 CellRange=     0.0.
 One-electron integrals computed using PRISM.
 One-electron integral symmetry used in STVInt
 NBasis=   872 RedAO= T EigKep=  2.97D-04  NBF=   872
 NBsUse=   872 1.00D-06 EigRej= -1.00D+00 NBFU=   872
 Precomputing XC quadrature grid using
 IXCGrd= 4 IRadAn=           5 IRanWt=          -1 IRanGd=           0 AccXCQ= 0.00D+00.
 Generated NRdTot=       0 NPtTot=           0 NUsed=           0 NTot=          32
 NSgBfM=   624   624   624   624   624 MxSgAt=    66 MxSgA2=    66.
 Leave Link  302 at Fri Jan 17 12:56:53 2020, MaxMem=  6710886400 cpu:              15.0 elap:               3.8
 (Enter /apps/gaussian/g16-a03/l303.exe)
 DipDrv:  MaxL=1.
 Leave Link  303 at Fri Jan 17 12:56:54 2020, MaxMem=  6710886400 cpu:               0.8 elap:               0.2
 (Enter /apps/gaussian/g16-a03/l401.exe)
 ExpMin= 7.71D-02 ExpMax= 4.40D+05 ExpMxC= 1.51D+04 IAcc=3 IRadAn=         5 AccDes= 0.00D+00
 Harris functional with IExCor=  402 and IRadAn=       5 diagonalized for initial guess.
 HarFok:  IExCor=  402 AccDes= 0.00D+00 IRadAn=         5 IDoV= 1 UseB2=F ITyADJ=14
 ICtDFT=  3500011 ScaDFX=  1.000000  1.000000  1.000000  1.000000
 FoFCou: FMM=F IPFlag=           0 FMFlag=      100000 FMFlg1=        2001
         NFxFlg=           0 DoJE=T BraDBF=F KetDBF=T FulRan=T
         wScrn=  0.000000 ICntrl=       500 IOpCl=  0 I1Cent=   200000004 NGrid=           0
         NMat0=    1 NMatS0=      1 NMatT0=    0 NMatD0=    1 NMtDS0=    0 NMtDT0=    0
 Petite list used in FoFCou.
 Harris En= -7404.42399972877    
 JPrj=0 DoOrth=F DoCkMO=F.
 Leave Link  401 at Fri Jan 17 12:57:14 2020, MaxMem=  6710886400 cpu:              79.8 elap:              20.0
 (Enter /apps/gaussian/g16-a03/l502.exe)
 Integral symmetry usage will be decided dynamically.
 Closed shell SCF:
 Using DIIS extrapolation, IDIIS=  1040.
 NGot=  6710886400 LenX=  6709215852 LenY=  6708386842
 Requested convergence on RMS density matrix=1.00D-08 within 128 cycles.
 Requested convergence on MAX density matrix=1.00D-06.
 Requested convergence on             energy=1.00D-06.
 No special actions if energy rises.
 Fock matrices will be formed incrementally for  20 cycles.
 Integral accuracy reduced to 1.0D-05 until final iterations.

 Cycle   1  Pass 0  IDiag  1:
 FoFJK:  IHMeth= 1 ICntrl=       0 DoSepK=F KAlg= 0 I1Cent=           0 FoldK=F
 IRaf= 480000000 NMat=       1 IRICut=       1 DoRegI=T DoRafI=F ISym2E= 0 IDoP0=0 IntGTp=1.
 FoFCou: FMM=T IPFlag=           0 FMFlag=      100000 FMFlg1=        2001
         NFxFlg=           0 DoJE=F BraDBF=F KetDBF=F FulRan=T
         wScrn=  0.000000 ICntrl=         0 IOpCl=  0 I1Cent=           0 NGrid=           0
         NMat0=    1 NMatS0=      1 NMatT0=    0 NMatD0=    1 NMtDS0=    0 NMtDT0=    0
 Symmetry not used in FoFCou.
 FMM levels:  10  Number of levels for PrismC:   9
 E= -7403.53356920206    
 DIIS: error= 7.94D-02 at cycle   1 NSaved=   1.
 NSaved= 1 IEnMin= 1 EnMin= -7403.53356920206     IErMin= 1 ErrMin= 7.94D-02
 ErrMax= 7.94D-02  0.00D+00 EMaxC= 1.00D-01 BMatC= 3.26D+00 BMatP= 3.26D+00
 IDIUse=3 WtCom= 2.06D-01 WtEn= 7.94D-01
 Coeff-Com:  0.100D+01
 Coeff-En:   0.100D+01
 Coeff:      0.100D+01
 Gap=     0.090 Goal=   None    Shift=    0.000
 GapD=    0.090 DampG=0.500 DampE=0.500 DampFc=0.2500 IDamp=-1.
 Damping current iteration by 2.50D-01
 RMSDP=2.17D-03 MaxDP=1.38D-01              OVMax= 2.72D-01

 Cycle   2  Pass 0  IDiag  1:
 RMSU=  5.43D-04    CP:  9.99D-01
 E= -7403.83031570997     Delta-E=       -0.296746507909 Rises=F Damp=T
 DIIS: error= 5.42D-02 at cycle   2 NSaved=   2.
 NSaved= 2 IEnMin= 2 EnMin= -7403.83031570997     IErMin= 2 ErrMin= 5.42D-02
 ErrMax= 5.42D-02  0.00D+00 EMaxC= 1.00D-01 BMatC= 1.35D+00 BMatP= 3.26D+00
 IDIUse=3 WtCom= 4.58D-01 WtEn= 5.42D-01
 Coeff-Com: -0.141D+01 0.241D+01
 Coeff-En:   0.000D+00 0.100D+01
 Coeff:     -0.646D+00 0.165D+01
 Gap=     0.169 Goal=   None    Shift=    0.000
 RMSDP=5.97D-04 MaxDP=4.48D-02 DE=-2.97D-01 OVMax= 2.25D-01

 Cycle   3  Pass 0  IDiag  1:
 RMSU=  5.52D-04    CP:  1.00D+00  1.42D+00
 E= -7404.32885227482     Delta-E=       -0.498536564854 Rises=F Damp=F
 DIIS: error= 6.59D-03 at cycle   3 NSaved=   3.
 NSaved= 3 IEnMin= 3 EnMin= -7404.32885227482     IErMin= 3 ErrMin= 6.59D-03
 ErrMax= 6.59D-03  0.00D+00 EMaxC= 1.00D-01 BMatC= 3.08D-02 BMatP= 1.35D+00
 IDIUse=3 WtCom= 9.34D-01 WtEn= 6.59D-02
 Coeff-Com: -0.105D+00 0.237D+00 0.867D+00
 Coeff-En:   0.000D+00 0.000D+00 0.100D+01
 Coeff:     -0.977D-01 0.222D+00 0.876D+00
 Gap=     0.137 Goal=   None    Shift=    0.000
 RMSDP=3.82D-04 MaxDP=2.98D-02 DE=-4.99D-01 OVMax= 6.82D-02

 Cycle   4  Pass 0  IDiag  1:
 RMSU=  2.18D-04    CP:  1.00D+00  1.61D+00  4.62D-01
 E= -7404.32430868218     Delta-E=        0.004543592648 Rises=F Damp=F
 DIIS: error= 8.33D-03 at cycle   4 NSaved=   4.
 NSaved= 4 IEnMin= 3 EnMin= -7404.32885227482     IErMin= 3 ErrMin= 6.59D-03
 ErrMax= 8.33D-03  0.00D+00 EMaxC= 1.00D-01 BMatC= 2.76D-02 BMatP= 3.08D-02
 IDIUse=3 WtCom= 9.17D-01 WtEn= 8.33D-02
 Coeff-Com:  0.304D-01-0.140D-01 0.507D+00 0.476D+00
 Coeff-En:   0.000D+00 0.000D+00 0.543D+00 0.457D+00
 Coeff:      0.279D-01-0.129D-01 0.510D+00 0.475D+00
 Gap=     0.140 Goal=   None    Shift=    0.000
 RMSDP=1.93D-04 MaxDP=1.21D-02 DE= 4.54D-03 OVMax= 3.91D-02

 Cycle   5  Pass 0  IDiag  1:
 RMSU=  6.53D-05    CP:  1.00D+00  1.50D+00  6.97D-01  4.89D-01
 E= -7404.34876755368     Delta-E=       -0.024458871500 Rises=F Damp=F
 DIIS: error= 2.10D-03 at cycle   5 NSaved=   5.
 NSaved= 5 IEnMin= 5 EnMin= -7404.34876755368     IErMin= 5 ErrMin= 2.10D-03
 ErrMax= 2.10D-03  0.00D+00 EMaxC= 1.00D-01 BMatC= 1.18D-03 BMatP= 2.76D-02
 IDIUse=3 WtCom= 9.79D-01 WtEn= 2.10D-02
 Coeff-Com:  0.267D-01-0.255D-01 0.252D+00 0.267D+00 0.479D+00
 Coeff-En:   0.000D+00 0.000D+00 0.000D+00 0.000D+00 0.100D+01
 Coeff:      0.262D-01-0.250D-01 0.247D+00 0.262D+00 0.490D+00
 Gap=     0.139 Goal=   None    Shift=    0.000
 RMSDP=4.98D-05 MaxDP=4.49D-03 DE=-2.45D-02 OVMax= 1.34D-02

 Cycle   6  Pass 0  IDiag  1:
 RMSU=  2.63D-05    CP:  1.00D+00  1.48D+00  7.04D-01  5.35D-01  3.83D-01
 E= -7404.34960866083     Delta-E=       -0.000841107158 Rises=F Damp=F
 DIIS: error= 1.38D-03 at cycle   6 NSaved=   6.
 NSaved= 6 IEnMin= 6 EnMin= -7404.34960866083     IErMin= 6 ErrMin= 1.38D-03
 ErrMax= 1.38D-03  0.00D+00 EMaxC= 1.00D-01 BMatC= 2.53D-04 BMatP= 1.18D-03
 IDIUse=3 WtCom= 9.86D-01 WtEn= 1.38D-02
 Coeff-Com:  0.148D-01-0.162D-01 0.107D+00 0.119D+00 0.334D+00 0.442D+00
 Coeff-En:   0.000D+00 0.000D+00 0.000D+00 0.000D+00 0.214D+00 0.786D+00
 Coeff:      0.146D-01-0.159D-01 0.106D+00 0.117D+00 0.333D+00 0.446D+00
 Gap=     0.139 Goal=   None    Shift=    0.000
 RMSDP=2.19D-05 MaxDP=1.61D-03 DE=-8.41D-04 OVMax= 6.77D-03

 Cycle   7  Pass 0  IDiag  1:
 RMSU=  7.57D-06    CP:  1.00D+00  1.48D+00  7.08D-01  5.22D-01  5.54D-01
                    CP:  3.66D-01
 E= -7404.34985095250     Delta-E=       -0.000242291668 Rises=F Damp=F
 DIIS: error= 3.25D-04 at cycle   7 NSaved=   7.
 NSaved= 7 IEnMin= 7 EnMin= -7404.34985095250     IErMin= 7 ErrMin= 3.25D-04
 ErrMax= 3.25D-04  0.00D+00 EMaxC= 1.00D-01 BMatC= 2.06D-05 BMatP= 2.53D-04
 IDIUse=3 WtCom= 9.97D-01 WtEn= 3.25D-03
 Coeff-Com:  0.596D-02-0.688D-02 0.364D-01 0.408D-01 0.147D+00 0.275D+00
 Coeff-Com:  0.502D+00
 Coeff-En:   0.000D+00 0.000D+00 0.000D+00 0.000D+00 0.000D+00 0.397D-01
 Coeff-En:   0.960D+00
 Coeff:      0.594D-02-0.685D-02 0.362D-01 0.407D-01 0.146D+00 0.275D+00
 Coeff:      0.503D+00
 Gap=     0.139 Goal=   None    Shift=    0.000
 RMSDP=6.59D-06 MaxDP=4.70D-04 DE=-2.42D-04 OVMax= 1.87D-03

 Initial convergence to 1.0D-05 achieved.  Increase integral accuracy.
 Cycle   8  Pass 1  IDiag  1:
 E= -7404.34986330634     Delta-E=       -0.000012353836 Rises=F Damp=F
 DIIS: error= 1.06D-04 at cycle   1 NSaved=   1.
 NSaved= 1 IEnMin= 1 EnMin= -7404.34986330634     IErMin= 1 ErrMin= 1.06D-04
 ErrMax= 1.06D-04  0.00D+00 EMaxC= 1.00D-01 BMatC= 4.59D-06 BMatP= 4.59D-06
 IDIUse=3 WtCom= 9.99D-01 WtEn= 1.06D-03
 Coeff-Com:  0.100D+01
 Coeff-En:   0.100D+01
 Coeff:      0.100D+01
 Gap=     0.139 Goal=   None    Shift=    0.000
 RMSDP=6.59D-06 MaxDP=4.70D-04 DE=-1.24D-05 OVMax= 1.47D-03

 Cycle   9  Pass 1  IDiag  1:
 RMSU=  2.60D-05    CP:  1.00D+00
 E= -7404.34985727872     Delta-E=        0.000006027620 Rises=F Damp=F
 DIIS: error= 2.03D-04 at cycle   2 NSaved=   2.
 NSaved= 2 IEnMin= 1 EnMin= -7404.34986330634     IErMin= 1 ErrMin= 1.06D-04
 ErrMax= 2.03D-04  0.00D+00 EMaxC= 1.00D-01 BMatC= 1.06D-05 BMatP= 4.59D-06
 IDIUse=3 WtCom= 4.12D-01 WtEn= 5.88D-01
 Coeff-Com:  0.618D+00 0.382D+00
 Coeff-En:   0.690D+00 0.310D+00
 Coeff:      0.660D+00 0.340D+00
 Gap=     0.139 Goal=   None    Shift=    0.000
 RMSDP=4.06D-06 MaxDP=3.10D-04 DE= 6.03D-06 OVMax= 1.17D-03

 Cycle  10  Pass 1  IDiag  1:
 RMSU=  4.05D-06    CP:  1.00D+00  9.85D-01
 E= -7404.34986772970     Delta-E=       -0.000010450987 Rises=F Damp=F
 DIIS: error= 4.19D-05 at cycle   3 NSaved=   3.
 NSaved= 3 IEnMin= 3 EnMin= -7404.34986772970     IErMin= 3 ErrMin= 4.19D-05
 ErrMax= 4.19D-05  0.00D+00 EMaxC= 1.00D-01 BMatC= 2.62D-07 BMatP= 4.59D-06
 IDIUse=1 WtCom= 1.00D+00 WtEn= 0.00D+00
 Coeff-Com:  0.145D+00 0.131D+00 0.725D+00
 Coeff:      0.145D+00 0.131D+00 0.725D+00
 Gap=     0.139 Goal=   None    Shift=    0.000
 RMSDP=1.14D-06 MaxDP=8.96D-05 DE=-1.05D-05 OVMax= 3.41D-04

 Cycle  11  Pass 1  IDiag  1:
 RMSU=  9.97D-07    CP:  1.00D+00  9.90D-01  8.68D-01
 E= -7404.34986768827     Delta-E=        0.000000041437 Rises=F Damp=F
 DIIS: error= 4.33D-05 at cycle   4 NSaved=   4.
 NSaved= 4 IEnMin= 3 EnMin= -7404.34986772970     IErMin= 3 ErrMin= 4.19D-05
 ErrMax= 4.33D-05  0.00D+00 EMaxC= 1.00D-01 BMatC= 3.19D-07 BMatP= 2.62D-07
 IDIUse=1 WtCom= 1.00D+00 WtEn= 0.00D+00
 Coeff-Com:  0.694D-02 0.340D-01 0.531D+00 0.428D+00
 Coeff:      0.694D-02 0.340D-01 0.531D+00 0.428D+00
 Gap=     0.139 Goal=   None    Shift=    0.000
 RMSDP=6.54D-07 MaxDP=6.14D-05 DE= 4.14D-08 OVMax= 1.76D-04

 Cycle  12  Pass 1  IDiag  1:
 RMSU=  1.74D-07    CP:  1.00D+00  9.94D-01  9.22D-01  4.16D-01
 E= -7404.34986799408     Delta-E=       -0.000000305814 Rises=F Damp=F
 DIIS: error= 4.31D-06 at cycle   5 NSaved=   5.
 NSaved= 5 IEnMin= 5 EnMin= -7404.34986799408     IErMin= 5 ErrMin= 4.31D-06
 ErrMax= 4.31D-06  0.00D+00 EMaxC= 1.00D-01 BMatC= 9.10D-09 BMatP= 2.62D-07
 IDIUse=1 WtCom= 1.00D+00 WtEn= 0.00D+00
 Coeff-Com: -0.207D-02 0.139D-01 0.285D+00 0.253D+00 0.450D+00
 Coeff:     -0.207D-02 0.139D-01 0.285D+00 0.253D+00 0.450D+00
 Gap=     0.139 Goal=   None    Shift=    0.000
 RMSDP=9.65D-08 MaxDP=7.32D-06 DE=-3.06D-07 OVMax= 2.29D-05

 Cycle  13  Pass 1  IDiag  1:
 RMSU=  5.20D-08    CP:  1.00D+00  9.94D-01  9.20D-01  4.50D-01  5.77D-01
 E= -7404.34986800260     Delta-E=       -0.000000008518 Rises=F Damp=F
 DIIS: error= 7.81D-07 at cycle   6 NSaved=   6.
 NSaved= 6 IEnMin= 6 EnMin= -7404.34986800260     IErMin= 6 ErrMin= 7.81D-07
 ErrMax= 7.81D-07  0.00D+00 EMaxC= 1.00D-01 BMatC= 2.71D-10 BMatP= 9.10D-09
 IDIUse=1 WtCom= 1.00D+00 WtEn= 0.00D+00
 Coeff-Com: -0.137D-02 0.558D-02 0.130D+00 0.117D+00 0.239D+00 0.510D+00
 Coeff:     -0.137D-02 0.558D-02 0.130D+00 0.117D+00 0.239D+00 0.510D+00
 Gap=     0.139 Goal=   None    Shift=    0.000
 RMSDP=2.37D-08 MaxDP=1.79D-06 DE=-8.52D-09 OVMax= 5.76D-06

 Cycle  14  Pass 1  IDiag  1:
 RMSU=  1.79D-08    CP:  1.00D+00  9.94D-01  9.21D-01  4.44D-01  5.88D-01
                    CP:  7.38D-01
 E= -7404.34986800283     Delta-E=       -0.000000000227 Rises=F Damp=F
 DIIS: error= 2.56D-07 at cycle   7 NSaved=   7.
 NSaved= 7 IEnMin= 7 EnMin= -7404.34986800283     IErMin= 7 ErrMin= 2.56D-07
 ErrMax= 2.56D-07  0.00D+00 EMaxC= 1.00D-01 BMatC= 3.00D-11 BMatP= 2.71D-10
 IDIUse=1 WtCom= 1.00D+00 WtEn= 0.00D+00
 Coeff-Com: -0.573D-03 0.165D-02 0.455D-01 0.404D-01 0.894D-01 0.288D+00
 Coeff-Com:  0.536D+00
 Coeff:     -0.573D-03 0.165D-02 0.455D-01 0.404D-01 0.894D-01 0.288D+00
 Coeff:      0.536D+00
 Gap=     0.139 Goal=   None    Shift=    0.000
 RMSDP=6.22D-09 MaxDP=4.21D-07 DE=-2.27D-10 OVMax= 1.45D-06

 SCF Done:  E(RB3LYP) =  -7404.34986800     A.U. after   14 cycles
            NFock= 14  Conv=0.62D-08     -V/T= 2.0017
 KE= 7.391693155112D+03 PE=-2.692175830297D+04 EE= 7.470076572077D+03
 Leave Link  502 at Fri Jan 17 13:04:46 2020, MaxMem=  6710886400 cpu:            1806.5 elap:             452.4
 (Enter /apps/gaussian/g16-a03/l601.exe)
 Copying SCF densities to generalized density rwf, IOpCl= 0 IROHF=0.

 **********************************************************************

            Population analysis using the SCF density.

 **********************************************************************

 Orbital symmetries:
       Occupied  (A) (A) (A) (A) (A) (A) (A) (A) (A) (A) (A) (A)
                 (A) (A) (A) (A) (A) (A) (A) (A) (A) (A) (A) (A)
                 (A) (A) (A) (A) (A) (A) (A) (A) (A) (A) (A) (A)
                 (A) (A) (A) (A) (A) (A) (A) (A) (A) (A) (A) (A)
                 (A) (A) (A) (A) (A) (A) (A) (A) (A) (A) (A) (A)
                 (A) (A) (A) (A) (A) (A) (A) (A) (A) (A) (A) (A)
                 (A) (A) (A) (A) (A) (A) (A) (A) (A) (A) (A) (A)
                 (A) (A) (A) (A) (A) (A) (A) (A) (A) (A) (A) (A)
                 (A) (A) (A) (A) (A) (A) (A) (A) (A) (A) (A) (A)
                 (A) (A) (A) (A) (A) (A) (A) (A) (A) (A) (A) (A)
                 (A) (A) (A) (A) (A) (A) (A) (A) (A) (A) (A) (A)
                 (A) (A) (A) (A) (A) (A) (A) (A) (A) (A) (A) (A)
                 (A) (A) (A) (A) (A) (A) (A) (A) (A) (A) (A) (A)
                 (A) (A) (A) (A) (A) (A) (A) (A) (A)
       Virtual   (A) (A) (A) (A) (A) (A) (A) (A) (A) (A) (A) (A)
                 (A) (A) (A) (A) (A) (A) (A) (A) (A) (A) (A) (A)
                 (A) (A) (A) (A) (A) (A) (A) (A) (A) (A) (A) (A)
                 (A) (A) (A) (A) (A) (A) (A) (A) (A) (A) (A) (A)
                 (A) (A) (A) (A) (A) (A) (A) (A) (A) (A) (A) (A)
                 (A) (A) (A) (A) (A) (A) (A) (A) (A) (A) (A) (A)
                 (A) (A) (A) (A) (A) (A) (A) (A) (A) (A) (A) (A)
                 (A) (A) (A) (A) (A) (A) (A) (A) (A) (A) (A) (A)
                 (A) (A) (A) (A) (A) (A) (A) (A) (A) (A) (A) (A)
                 (A) (A) (A) (A) (A) (A) (A) (A) (A) (A) (A) (A)
                 (A) (A) (A) (A) (A) (A) (A) (A) (A) (A) (A) (A)
                 (A) (A) (A) (A) (A) (A) (A) (A) (A) (A) (A) (A)
                 (A) (A) (A) (A) (A) (A) (A) (A) (A) (A) (A) (A)
                 (A) (A) (A) (A) (A) (A) (A) (A) (A) (A) (A) (A)
                 (A) (A) (A) (A) (A) (A) (A) (A) (A) (A) (A) (A)
                 (A) (A) (A) (A) (A) (A) (A) (A) (A) (A) (A) (A)
                 (A) (A) (A) (A) (A) (A) (A) (A) (A) (A) (A) (A)
                 (A) (A) (A) (A) (A) (A) (A) (A) (A) (A) (A) (A)
                 (A) (A) (A) (A) (A) (A) (A) (A) (A) (A) (A) (A)
                 (A) (A) (A) (A) (A) (A) (A) (A) (A) (A) (A) (A)
                 (A) (A) (A) (A) (A) (A) (A) (A) (A) (A) (A) (A)
                 (A) (A) (A) (A) (A) (A) (A) (A) (A) (A) (A) (A)
                 (A) (A) (A) (A) (A) (A) (A) (A) (A) (A) (A) (A)
                 (A) (A) (A) (A) (A) (A) (A) (A) (A) (A) (A) (A)
                 (A) (A) (A) (A) (A) (A) (A) (A) (A) (A) (A) (A)
                 (A) (A) (A) (A) (A) (A) (A) (A) (A) (A) (A) (A)
                 (A) (A) (A) (A) (A) (A) (A) (A) (A) (A) (A) (A)
                 (A) (A) (A) (A) (A) (A) (A) (A) (A) (A) (A) (A)
                 (A) (A) (A) (A) (A) (A) (A) (A) (A) (A) (A) (A)
                 (A) (A) (A) (A) (A) (A) (A) (A) (A) (A) (A) (A)
                 (A) (A) (A) (A) (A) (A) (A) (A) (A) (A) (A) (A)
                 (A) (A) (A) (A) (A) (A) (A) (A) (A) (A) (A) (A)
                 (A) (A) (A) (A) (A) (A) (A) (A) (A) (A) (A) (A)
                 (A) (A) (A) (A) (A) (A) (A) (A) (A) (A) (A) (A)
                 (A) (A) (A) (A) (A) (A) (A) (A) (A) (A) (A) (A)
                 (A) (A) (A) (A) (A) (A) (A) (A) (A) (A) (A) (A)
                 (A) (A) (A) (A) (A) (A) (A) (A) (A) (A) (A) (A)
                 (A) (A) (A) (A) (A) (A) (A) (A) (A) (A) (A) (A)
                 (A) (A) (A) (A) (A) (A) (A) (A) (A) (A) (A) (A)
                 (A) (A) (A) (A) (A) (A) (A) (A) (A) (A) (A) (A)
                 (A) (A) (A) (A) (A) (A) (A) (A) (A) (A) (A) (A)
                 (A) (A) (A) (A) (A) (A) (A) (A) (A) (A) (A) (A)
                 (A) (A) (A) (A) (A) (A) (A) (A) (A) (A) (A) (A)
                 (A) (A) (A) (A) (A) (A) (A) (A) (A) (A) (A) (A)
                 (A) (A) (A) (A) (A) (A) (A) (A) (A) (A) (A) (A)
                 (A) (A) (A) (A) (A) (A) (A) (A) (A) (A) (A) (A)
                 (A) (A) (A) (A) (A) (A) (A) (A) (A) (A) (A) (A)
                 (A) (A) (A) (A) (A) (A) (A) (A) (A) (A) (A) (A)
                 (A) (A) (A) (A) (A) (A) (A) (A) (A) (A) (A) (A)
                 (A) (A) (A) (A) (A) (A) (A) (A) (A) (A) (A) (A)
                 (A) (A) (A) (A) (A) (A) (A) (A) (A) (A) (A) (A)
                 (A) (A) (A) (A) (A) (A) (A) (A) (A) (A) (A) (A)
                 (A) (A) (A) (A) (A) (A) (A) (A) (A) (A) (A) (A)
                 (A) (A) (A) (A) (A) (A) (A) (A) (A) (A) (A) (A)
                 (A) (A) (A) (A) (A) (A) (A) (A) (A) (A) (A) (A)
                 (A) (A) (A) (A) (A) (A) (A) (A) (A) (A) (A) (A)
                 (A) (A) (A) (A) (A) (A) (A) (A) (A) (A) (A) (A)
                 (A) (A) (A) (A) (A) (A) (A) (A) (A) (A) (A) (A)
                 (A) (A) (A) (A) (A) (A) (A) (A) (A) (A) (A)
 The electronic state is 1-A.
 Alpha  occ. eigenvalues -- -482.84412-482.84362 -88.89186 -88.89096 -62.49663
 Alpha  occ. eigenvalues --  -62.49615 -56.31729 -56.31682 -56.31296 -56.31295
 Alpha  occ. eigenvalues --  -56.31247 -56.31245 -19.16892 -19.16869 -19.13532
 Alpha  occ. eigenvalues --  -19.13520 -19.12855 -19.12846 -19.12355 -19.12348
 Alpha  occ. eigenvalues --  -10.25296 -10.25256 -10.24781 -10.24742 -10.24057
 Alpha  occ. eigenvalues --  -10.24041 -10.23112 -10.23094 -10.22460 -10.22442
 Alpha  occ. eigenvalues --  -10.22245 -10.22230 -10.22012 -10.21976 -10.21944
 Alpha  occ. eigenvalues --  -10.21933 -10.21782 -10.21779 -10.21486 -10.21484
 Alpha  occ. eigenvalues --  -10.19062 -10.18961  -8.70598  -8.70551  -7.97727
 Alpha  occ. eigenvalues --   -7.97646  -6.53814  -6.53772  -6.52398  -6.52389
 Alpha  occ. eigenvalues --   -6.52348  -6.52341  -5.94071  -5.93987  -5.93664
 Alpha  occ. eigenvalues --   -5.93583  -5.93248  -5.93169  -2.64885  -2.64841
 Alpha  occ. eigenvalues --   -2.64484  -2.64474  -2.64439  -2.64430  -2.63352
 Alpha  occ. eigenvalues --   -2.63351  -2.63302  -2.63302  -1.08723  -1.08648
 Alpha  occ. eigenvalues --   -1.05467  -1.05459  -1.04625  -1.04618  -1.03755
 Alpha  occ. eigenvalues --   -1.03734  -0.91058  -0.89645  -0.82515  -0.81072
 Alpha  occ. eigenvalues --   -0.79906  -0.79851  -0.77682  -0.77393  -0.76197
 Alpha  occ. eigenvalues --   -0.74760  -0.74092  -0.72871  -0.71612  -0.69207
 Alpha  occ. eigenvalues --   -0.67243  -0.66777  -0.63675  -0.63440  -0.61833
 Alpha  occ. eigenvalues --   -0.61784  -0.61173  -0.61155  -0.60104  -0.57887
 Alpha  occ. eigenvalues --   -0.56730  -0.55597  -0.55005  -0.52151  -0.52117
 Alpha  occ. eigenvalues --   -0.51996  -0.51847  -0.50682  -0.50652  -0.50553
 Alpha  occ. eigenvalues --   -0.49029  -0.48769  -0.48620  -0.48561  -0.48076
 Alpha  occ. eigenvalues --   -0.47821  -0.47004  -0.45851  -0.45778  -0.45544
 Alpha  occ. eigenvalues --   -0.45386  -0.45303  -0.44770  -0.44640  -0.43639
 Alpha  occ. eigenvalues --   -0.43166  -0.43041  -0.42982  -0.41353  -0.41108
 Alpha  occ. eigenvalues --   -0.40613  -0.40210  -0.39526  -0.38851  -0.38688
 Alpha  occ. eigenvalues --   -0.38132  -0.37712  -0.36844  -0.36393  -0.36349
 Alpha  occ. eigenvalues --   -0.35717  -0.34957  -0.34839  -0.34616  -0.34533
 Alpha  occ. eigenvalues --   -0.34007  -0.33687  -0.33113  -0.33099  -0.32518
 Alpha  occ. eigenvalues --   -0.32513  -0.31972  -0.30724  -0.30364  -0.30044
 Alpha  occ. eigenvalues --   -0.27690  -0.27668  -0.26969  -0.26936  -0.26914
 Alpha  occ. eigenvalues --   -0.26260  -0.26260  -0.25166  -0.24959  -0.19345
 Alpha virt. eigenvalues --   -0.05432  -0.04027  -0.02957  -0.00666   0.01286
 Alpha virt. eigenvalues --    0.01403   0.03953   0.04003   0.04476   0.04551
 Alpha virt. eigenvalues --    0.04561   0.04709   0.04855   0.05069   0.05657
 Alpha virt. eigenvalues --    0.05715   0.06712   0.06775   0.07352   0.08203
 Alpha virt. eigenvalues --    0.08265   0.08375   0.08433   0.08615   0.08978
 Alpha virt. eigenvalues --    0.09071   0.09503   0.09973   0.10622   0.10711
 Alpha virt. eigenvalues --    0.10723   0.10843   0.10856   0.11805   0.12020
 Alpha virt. eigenvalues --    0.12717   0.12823   0.12907   0.12926   0.13850
 Alpha virt. eigenvalues --    0.14138   0.14837   0.14948   0.15080   0.15141
 Alpha virt. eigenvalues --    0.15654   0.16187   0.16255   0.16884   0.17379
 Alpha virt. eigenvalues --    0.18340   0.18467   0.18836   0.19110   0.19956
 Alpha virt. eigenvalues --    0.19990   0.20171   0.20463   0.21170   0.21341
 Alpha virt. eigenvalues --    0.21410   0.21727   0.22473   0.22877   0.23655
 Alpha virt. eigenvalues --    0.24535   0.24795   0.25241   0.25686   0.27022
 Alpha virt. eigenvalues --    0.27712   0.28291   0.28510   0.29336   0.29602
 Alpha virt. eigenvalues --    0.29754   0.30170   0.30742   0.30746   0.30773
 Alpha virt. eigenvalues --    0.31745   0.31914   0.32484   0.32518   0.32571
 Alpha virt. eigenvalues --    0.33269   0.33611   0.33947   0.34050   0.34105
 Alpha virt. eigenvalues --    0.34118   0.34680   0.36129   0.36367   0.38438
 Alpha virt. eigenvalues --    0.38618   0.39000   0.39363   0.39668   0.40265
 Alpha virt. eigenvalues --    0.40363   0.41581   0.41856   0.42454   0.42468
 Alpha virt. eigenvalues --    0.42681   0.43020   0.43629   0.43973   0.44048
 Alpha virt. eigenvalues --    0.44605   0.44708   0.44745   0.44809   0.44923
 Alpha virt. eigenvalues --    0.44955   0.45162   0.45533   0.47458   0.47610
 Alpha virt. eigenvalues --    0.47996   0.48382   0.48554   0.48825   0.49480
 Alpha virt. eigenvalues --    0.49573   0.50130   0.50166   0.50687   0.50700
 Alpha virt. eigenvalues --    0.50926   0.51111   0.51460   0.51951   0.52098
 Alpha virt. eigenvalues --    0.52706   0.53068   0.53136   0.53286   0.54039
 Alpha virt. eigenvalues --    0.54634   0.54684   0.54757   0.55280   0.55553
 Alpha virt. eigenvalues --    0.55846   0.56075   0.56241   0.56640   0.57276
 Alpha virt. eigenvalues --    0.57350   0.57964   0.58085   0.58110   0.58119
 Alpha virt. eigenvalues --    0.58738   0.58850   0.58856   0.59829   0.60032
 Alpha virt. eigenvalues --    0.60463   0.60488   0.60588   0.60945   0.61143
 Alpha virt. eigenvalues --    0.61194   0.61513   0.61648   0.61691   0.62078
 Alpha virt. eigenvalues --    0.62218   0.62501   0.62770   0.62891   0.63175
 Alpha virt. eigenvalues --    0.63408   0.63648   0.64366   0.65443   0.65845
 Alpha virt. eigenvalues --    0.65869   0.66202   0.66533   0.67688   0.67791
 Alpha virt. eigenvalues --    0.69720   0.69835   0.70794   0.71480   0.72112
 Alpha virt. eigenvalues --    0.72323   0.73184   0.73292   0.74411   0.76027
 Alpha virt. eigenvalues --    0.76411   0.78064   0.80224   0.80230   0.80632
 Alpha virt. eigenvalues --    0.81570   0.81867   0.82776   0.83798   0.85558
 Alpha virt. eigenvalues --    0.85656   0.85776   0.86781   0.87276   0.88526
 Alpha virt. eigenvalues --    0.88939   0.89123   0.90330   0.90450   0.90551
 Alpha virt. eigenvalues --    0.91425   0.91565   0.92226   0.92772   0.93804
 Alpha virt. eigenvalues --    0.94213   0.94714   0.95499   0.96106   0.96740
 Alpha virt. eigenvalues --    0.96938   0.97467   0.98558   0.98744   0.99171
 Alpha virt. eigenvalues --    1.00197   1.01746   1.02176   1.02327   1.02486
 Alpha virt. eigenvalues --    1.03097   1.03579   1.04333   1.04506   1.04756
 Alpha virt. eigenvalues --    1.04956   1.04992   1.05368   1.05969   1.06019
 Alpha virt. eigenvalues --    1.06452   1.07084   1.07954   1.08078   1.08184
 Alpha virt. eigenvalues --    1.10815   1.11136   1.12052   1.12244   1.12317
 Alpha virt. eigenvalues --    1.12719   1.13226   1.13594   1.14066   1.16416
 Alpha virt. eigenvalues --    1.18222   1.18681   1.19513   1.22513   1.23121
 Alpha virt. eigenvalues --    1.23765   1.23781   1.24666   1.24748   1.25478
 Alpha virt. eigenvalues --    1.25621   1.25633   1.27396   1.27950   1.28370
 Alpha virt. eigenvalues --    1.32784   1.33281   1.38212   1.40074   1.40326
 Alpha virt. eigenvalues --    1.40899   1.40920   1.42398   1.42791   1.42893
 Alpha virt. eigenvalues --    1.43758   1.43768   1.44896   1.45059   1.45601
 Alpha virt. eigenvalues --    1.45714   1.46011   1.46239   1.46343   1.46367
 Alpha virt. eigenvalues --    1.46815   1.46825   1.47136   1.47150   1.47548
 Alpha virt. eigenvalues --    1.47599   1.48380   1.48780   1.48917   1.49974
 Alpha virt. eigenvalues --    1.50057   1.51046   1.51113   1.51171   1.51607
 Alpha virt. eigenvalues --    1.52781   1.52852   1.53951   1.54251   1.55886
 Alpha virt. eigenvalues --    1.56732   1.57094   1.57113   1.57223   1.57372
 Alpha virt. eigenvalues --    1.57956   1.58493   1.58639   1.58815   1.58933
 Alpha virt. eigenvalues --    1.59259   1.59300   1.59724   1.59975   1.60360
 Alpha virt. eigenvalues --    1.60647   1.60672   1.61002   1.61543   1.61725
 Alpha virt. eigenvalues --    1.62033   1.62597   1.62951   1.63531   1.64691
 Alpha virt. eigenvalues --    1.64722   1.64739   1.65216   1.65239   1.65278
 Alpha virt. eigenvalues --    1.65544   1.65852   1.65881   1.67025   1.68323
 Alpha virt. eigenvalues --    1.68897   1.68901   1.70250   1.70950   1.71751
 Alpha virt. eigenvalues --    1.73161   1.73166   1.74146   1.75422   1.75523
 Alpha virt. eigenvalues --    1.76438   1.76945   1.78088   1.79258   1.79306
 Alpha virt. eigenvalues --    1.79418   1.79639   1.81105   1.81449   1.81741
 Alpha virt. eigenvalues --    1.82292   1.82375   1.82417   1.83546   1.84511
 Alpha virt. eigenvalues --    1.85916   1.87087   1.87359   1.88361   1.88394
 Alpha virt. eigenvalues --    1.89010   1.90442   1.90618   1.92009   1.92428
 Alpha virt. eigenvalues --    1.92631   1.93838   1.95617   1.97318   1.97433
 Alpha virt. eigenvalues --    1.97805   1.98425   1.98699   1.99006   2.01183
 Alpha virt. eigenvalues --    2.01390   2.01452   2.01508   2.02188   2.02282
 Alpha virt. eigenvalues --    2.02938   2.03017   2.03334   2.03783   2.04426
 Alpha virt. eigenvalues --    2.04526   2.05157   2.05595   2.06279   2.07172
 Alpha virt. eigenvalues --    2.07213   2.07304   2.07565   2.08708   2.09575
 Alpha virt. eigenvalues --    2.09739   2.09766   2.10140   2.11331   2.11348
 Alpha virt. eigenvalues --    2.11454   2.13928   2.14733   2.15158   2.16262
 Alpha virt. eigenvalues --    2.16806   2.17508   2.18325   2.19209   2.22302
 Alpha virt. eigenvalues --    2.22458   2.26405   2.26489   2.28965   2.29009
 Alpha virt. eigenvalues --    2.29395   2.29411   2.29531   2.29679   2.31132
 Alpha virt. eigenvalues --    2.31247   2.33529   2.33763   2.34287   2.34332
 Alpha virt. eigenvalues --    2.34692   2.34744   2.35417   2.35427   2.35619
 Alpha virt. eigenvalues --    2.35642   2.35652   2.35669   2.40564   2.40647
 Alpha virt. eigenvalues --    2.40939   2.41566   2.41581   2.41828   2.42205
 Alpha virt. eigenvalues --    2.42239   2.43298   2.43332   2.43985   2.44752
 Alpha virt. eigenvalues --    2.45951   2.45964   2.46143   2.47441   2.48258
 Alpha virt. eigenvalues --    2.48524   2.48919   2.49363   2.50066   2.51119
 Alpha virt. eigenvalues --    2.51488   2.52222   2.53011   2.53073   2.53286
 Alpha virt. eigenvalues --    2.53389   2.53437   2.53996   2.55141   2.56377
 Alpha virt. eigenvalues --    2.57078   2.57137   2.57562   2.58971   2.60007
 Alpha virt. eigenvalues --    2.60443   2.60858   2.60876   2.62961   2.64322
 Alpha virt. eigenvalues --    2.64420   2.70967   2.72589   2.72619   2.73760
 Alpha virt. eigenvalues --    2.73846   2.74534   2.75252   2.77775   2.77803
 Alpha virt. eigenvalues --    2.80254   2.80614   2.80924   2.82089   2.82286
 Alpha virt. eigenvalues --    2.83183   2.83813   2.83876   2.84756   2.85042
 Alpha virt. eigenvalues --    2.85198   2.85769   2.85840   2.86815   2.86936
 Alpha virt. eigenvalues --    2.87423   2.90384   2.90798   2.90822   2.94339
 Alpha virt. eigenvalues --    2.94445   2.94519   2.94859   2.95096   2.98744
 Alpha virt. eigenvalues --    2.98999   3.03384   3.03852   3.04578   3.04722
 Alpha virt. eigenvalues --    3.07004   3.07509   3.07559   3.07996   3.10767
 Alpha virt. eigenvalues --    3.10801   3.13288   3.13325   3.14598   3.14879
 Alpha virt. eigenvalues --    3.16789   3.16939   3.17916   3.18303   3.18754
 Alpha virt. eigenvalues --    3.19160   3.21486   3.21723   3.21801   3.21913
 Alpha virt. eigenvalues --    3.24419   3.25257   3.25479   3.25672   3.26970
 Alpha virt. eigenvalues --    3.27351   3.28152   3.28216   3.31536   3.31582
 Alpha virt. eigenvalues --    3.32796   3.33612   3.33760   3.34460   3.35523
 Alpha virt. eigenvalues --    3.40625   3.43435   3.67754   3.75204   3.75210
 Alpha virt. eigenvalues --    3.75583   3.75586   3.75979   3.76018   3.76585
 Alpha virt. eigenvalues --    3.76596   3.77405   3.77412   3.78512   3.78618
 Alpha virt. eigenvalues --    3.79431   3.79469   3.80468   3.80515   3.80978
 Alpha virt. eigenvalues --    3.83047   3.94052   3.94091   3.94534   3.94786
 Alpha virt. eigenvalues --    3.97320   3.99677   4.01536   4.02525   4.04146
 Alpha virt. eigenvalues --    4.05248   4.08353   4.08937   4.12340   4.12703
 Alpha virt. eigenvalues --    4.12785   4.12822   4.14354   4.14619   4.14863
 Alpha virt. eigenvalues --    4.17125   4.17520   4.19473   4.19503   4.20703
 Alpha virt. eigenvalues --    4.20862   4.25663   4.25728   4.30157   4.30343
 Alpha virt. eigenvalues --    4.30570   4.31491   4.51701   4.52572   4.57536
 Alpha virt. eigenvalues --    4.89713   4.91779   4.94244   4.94259   4.95471
 Alpha virt. eigenvalues --    4.95511   4.96437   4.96460   5.20025   5.20103
 Alpha virt. eigenvalues --    5.24260   5.24465   5.29256   5.29572   5.32112
 Alpha virt. eigenvalues --    5.33542   5.65795   5.65889   5.68808   5.69083
 Alpha virt. eigenvalues --    5.74166   5.74849   5.79093   5.81190   6.46361
 Alpha virt. eigenvalues --    6.47110   7.45305   7.45349   7.49246   7.49713
 Alpha virt. eigenvalues --    7.58829   7.60833   7.79685   7.79952  17.18231
 Alpha virt. eigenvalues --   17.20239  17.41301  17.43568  17.47735  17.51581
 Alpha virt. eigenvalues --   23.35843  23.53568  23.67798  23.76927  23.77039
 Alpha virt. eigenvalues --   23.77741  23.77790  23.78260  23.78276  23.78768
 Alpha virt. eigenvalues --   23.79216  23.79247  23.79838  23.79896  23.80774
 Alpha virt. eigenvalues --   23.80794  23.85874  23.85877  24.01707  24.01795
 Alpha virt. eigenvalues --   24.11151  24.11470  47.75752  47.76299  49.87780
 Alpha virt. eigenvalues --   49.87794  49.90313  49.90324  49.91485  49.92193
 Alpha virt. eigenvalues --   49.92478  49.92623 188.90130 188.90847 289.64924
 Alpha virt. eigenvalues --  289.64976 289.68839 289.69246 289.81619 289.83143
 Alpha virt. eigenvalues -- 1020.504231020.51100
          Condensed to atoms (all electrons):
 Mulliken charges:
               1
     1  C   -0.234526
     2  C    0.242520
     3  C   -0.045448
     4  C   -0.338186
     5  S    0.379303
     6  O   -0.384514
     7  H    0.129715
     8  C   -0.232924
     9  C    0.243598
    10  C   -0.040549
    11  C   -0.345657
    12  S    0.381081
    13  O   -0.384629
    14  H    0.127577
    15  C   -0.048613
    16  H    0.120859
    17  H    0.120731
    18  C    0.015305
    19  H    0.106906
    20  H    0.106933
    21  O   -0.391916
    22  C   -0.000819
    23  H    0.099886
    24  H    0.099873
    25  C    0.003029
    26  H    0.096627
    27  H    0.096820
    28  O   -0.389740
    29  C    0.000155
    30  H    0.098088
    31  H    0.097878
    32  C   -0.007887
    33  H    0.094364
    34  H    0.094319
    35  O   -0.369941
    36  C   -0.102254
    37  H    0.089431
    38  H    0.115799
    39  H    0.089431
    40  C   -0.048701
    41  H    0.120882
    42  H    0.121094
    43  C    0.015310
    44  H    0.107140
    45  H    0.106898
    46  O   -0.391953
    47  C   -0.000894
    48  H    0.099823
    49  H    0.099932
    50  C    0.003095
    51  H    0.096762
    52  H    0.096946
    53  O   -0.389964
    54  C    0.000237
    55  H    0.097993
    56  H    0.097947
    57  C   -0.007763
    58  H    0.094481
    59  H    0.094424
    60  O   -0.370441
    61  C   -0.102142
    62  H    0.089406
    63  H    0.115811
    64  H    0.089372
    65  Br   0.014419
    66  Br   0.017260
 Sum of Mulliken charges =  -0.00000
 Mulliken charges with hydrogens summed into heavy atoms:
               1
     1  C   -0.234526
     2  C    0.242520
     3  C    0.084267
     4  C   -0.338186
     5  S    0.379303
     6  O   -0.384514
     8  C   -0.232924
     9  C    0.243598
    10  C    0.087028
    11  C   -0.345657
    12  S    0.381081
    13  O   -0.384629
    15  C    0.192977
    18  C    0.229144
    21  O   -0.391916
    22  C    0.198940
    25  C    0.196476
    28  O   -0.389740
    29  C    0.196120
    32  C    0.180796
    35  O   -0.369941
    36  C    0.192407
    40  C    0.193274
    43  C    0.229348
    46  O   -0.391953
    47  C    0.198861
    50  C    0.196802
    53  O   -0.389964
    54  C    0.196178
    57  C    0.181142
    60  O   -0.370441
    61  C    0.192447
    65  Br   0.014419
    66  Br   0.017260
 Electronic spatial extent (au):  <R**2>=          64078.8925
 Charge=              0.0000 electrons
 Dipole moment (field-independent basis, Debye):
    X=             -0.0133    Y=             -0.0377    Z=              0.0034  Tot=              0.0401
 Quadrupole moment (field-independent basis, Debye-Ang):
   XX=           -194.7011   YY=           -246.6318   ZZ=           -245.3357
   XY=            -14.9308   XZ=              0.0100   YZ=              0.0063
 Traceless Quadrupole moment (field-independent basis, Debye-Ang):
   XX=             34.1885   YY=            -17.7423   ZZ=            -16.4462
   XY=            -14.9308   XZ=              0.0100   YZ=              0.0063
 Octapole moment (field-independent basis, Debye-Ang**2):
  XXX=              2.3887  YYY=             -0.9321  ZZZ=              0.0343  XYY=              2.0253
  XXY=              0.1006  XXZ=              0.2239  XZZ=              0.6754  YZZ=              0.0792
  YYZ=              0.0491  XYZ=             -0.0237
 Hexadecapole moment (field-independent basis, Debye-Ang**3):
 XXXX=         -59956.2439 YYYY=          -8207.5279 ZZZZ=           -369.9925 XXXY=          -4529.5409
 XXXZ=              0.1439 YYYX=              2.7146 YYYZ=              0.1240 ZZZX=             -0.0476
 ZZZY=              0.1043 XXYY=         -13271.8612 XXZZ=         -11940.7565 YYZZ=          -1513.5207
 XXYZ=              0.0208 YYXZ=              0.0762 ZZXY=            -16.3336
 N-N= 4.655638707781D+03 E-N=-2.692175837630D+04  KE= 7.391693155112D+03
 No NMR shielding tensors so no spin-rotation constants.
 Leave Link  601 at Fri Jan 17 13:04:47 2020, MaxMem=  6710886400 cpu:               3.8 elap:               1.1
 (Enter /apps/gaussian/g16-a03/l602.exe)
 FitSet:  NAtFit=    66 NAtPot=    66 NAtFrz=     0 MDM=    70 TotChg=   0.00000
 UFF atomic radii scaled by 1 / 1.20 used.

 **********************************************************************

            Electrostatic Properties Using The SCF Density

 **********************************************************************

       Atomic Center    1 is at   0.138010  0.705200 -0.000991
       Atomic Center    2 is at   1.380700  1.318947 -0.000991
       Atomic Center    3 is at   1.330985  2.741699 -0.000991
       Atomic Center    4 is at   0.050422  3.210762 -0.000991
       Atomic Center    5 is at  -1.116690  1.937414 -0.000991
       Atomic Center    6 is at   2.509864  0.554059  0.000009
       Atomic Center    7 is at   2.200523  3.382423  0.000009
       Atomic Center    8 is at  -0.158329 -0.708428 -0.000991
       Atomic Center    9 is at  -1.401019 -1.322175 -0.000991
       Atomic Center   10 is at  -1.352304 -2.744932 -0.000991
       Atomic Center   11 is at  -0.070741 -3.213990 -0.000991
       Atomic Center   12 is at   1.096377 -1.941642  0.000009
       Atomic Center   13 is at  -2.530183 -0.557287 -0.000991
       Atomic Center   14 is at  -2.220837 -3.386651 -0.000991
       Atomic Center   15 is at   3.771294  1.215909  0.000009
       Atomic Center   16 is at   3.878882  1.845501  0.890009
       Atomic Center   17 is at   3.878882  1.845501 -0.890991
       Atomic Center   18 is at   4.839156  0.137683  0.000009
       Atomic Center   19 is at   4.727607 -0.498931  0.889009
       Atomic Center   20 is at   4.727607 -0.498931 -0.888991
       Atomic Center   21 is at   6.089586  0.799474  0.000009
       Atomic Center   22 is at   7.196396 -0.084538  0.000009
       Atomic Center   23 is at   7.182899 -0.730620  0.889009
       Atomic Center   24 is at   7.182899 -0.730620 -0.888991
       Atomic Center   25 is at   8.457833  0.760315  0.000009
       Atomic Center   26 is at   8.469325  1.407387  0.889009
       Atomic Center   27 is at   8.470325  1.407392 -0.887991
       Atomic Center   28 is at   9.561643 -0.123713  0.000009
       Atomic Center   29 is at  10.814079  0.537088  0.001009
       Atomic Center   30 is at  10.921623  1.174681  0.889009
       Atomic Center   31 is at  10.922623  1.174686 -0.887991
       Atomic Center   32 is at  11.895870 -0.528061  0.001009
       Atomic Center   33 is at  11.785331 -1.166670 -0.887991
       Atomic Center   34 is at  11.785331 -1.166670  0.890009
       Atomic Center   35 is at  13.144300  0.133718  0.001009
       Atomic Center   36 is at  14.240148 -0.757353  0.001009
       Atomic Center   37 is at  14.239635 -1.400365 -0.890991
       Atomic Center   38 is at  15.147887 -0.153422  0.001009
       Atomic Center   39 is at  14.239635 -1.400365  0.893009
       Atomic Center   40 is at  -3.791608 -1.220137 -0.000991
       Atomic Center   41 is at  -3.899201 -1.848729  0.890009
       Atomic Center   42 is at  -3.899201 -1.848729 -0.890991
       Atomic Center   43 is at  -4.859475 -0.140911  0.000009
       Atomic Center   44 is at  -4.747920  0.494703  0.889009
       Atomic Center   45 is at  -4.747920  0.494703 -0.889991
       Atomic Center   46 is at  -6.109905 -0.802702  0.000009
       Atomic Center   47 is at  -7.216715  0.081310  0.000009
       Atomic Center   48 is at  -7.203224  0.728392  0.889009
       Atomic Center   49 is at  -7.203218  0.727393 -0.888991
       Atomic Center   50 is at  -8.478152 -0.763543  0.000009
       Atomic Center   51 is at  -8.490644 -1.410620  0.889009
       Atomic Center   52 is at  -8.490644 -1.410620 -0.887991
       Atomic Center   53 is at  -9.581968  0.121485  0.000009
       Atomic Center   54 is at -10.834403 -0.539316  0.001009
       Atomic Center   55 is at -10.941947 -1.176909  0.890009
       Atomic Center   56 is at -10.942947 -1.176914 -0.887991
       Atomic Center   57 is at -11.915195  0.525839  0.001009
       Atomic Center   58 is at -11.805656  1.164442 -0.887991
       Atomic Center   59 is at -11.804656  1.164448  0.890009
       Atomic Center   60 is at -13.164624 -0.135946  0.001009
       Atomic Center   61 is at -14.260472  0.755125  0.001009
       Atomic Center   62 is at -14.259959  1.398137 -0.890991
       Atomic Center   63 is at -15.168211  0.151194  0.002009
       Atomic Center   64 is at -14.258959  1.398143  0.893009
       Atomic Center   65 is at  -0.195047  5.125088  0.000085
       Atomic Center   66 is at   0.270491 -5.113584  0.000249
    3273 points will be used for fitting atomic charges
 Fitting point charges to electrostatic potential
 Charges from ESP fit, RMS=   0.00249 RRMS=   0.32425:
 ESP charges:
               1
     1  C   -0.159009
     2  C    0.488389
     3  C   -0.360632
     4  C   -0.072202
     5  S    0.056981
     6  O   -0.424079
     7  H    0.172761
     8  C   -0.175866
     9  C    0.509302
    10  C   -0.389494
    11  C   -0.048303
    12  S    0.049052
    13  O   -0.436509
    14  H    0.178681
    15  C    0.218668
    16  H    0.027713
    17  H    0.027488
    18  C    0.361891
    19  H   -0.019581
    20  H   -0.019678
    21  O   -0.592025
    22  C    0.334615
    23  H   -0.024682
    24  H   -0.024641
    25  C    0.383968
    26  H   -0.031560
    27  H   -0.031497
    28  O   -0.585022
    29  C    0.301127
    30  H   -0.025146
    31  H   -0.025210
    32  C    0.317454
    33  H   -0.013586
    34  H   -0.013691
    35  O   -0.420344
    36  C   -0.029711
    37  H    0.047644
    38  H    0.095348
    39  H    0.047649
    40  C    0.218769
    41  H    0.030003
    42  H    0.030294
    43  C    0.368817
    44  H   -0.016191
    45  H   -0.016438
    46  O   -0.593170
    47  C    0.273985
    48  H   -0.014784
    49  H   -0.014756
    50  C    0.440630
    51  H   -0.040749
    52  H   -0.040603
    53  O   -0.571597
    54  C    0.251098
    55  H   -0.014859
    56  H   -0.014958
    57  C    0.310913
    58  H   -0.008300
    59  H   -0.008408
    60  O   -0.416069
    61  C   -0.019285
    62  H    0.043311
    63  H    0.093778
    64  H    0.043186
    65  Br  -0.004661
    66  Br  -0.006222
 Sum of ESP charges =  -0.00000
 ESP charges with hydrogens summed into heavy atoms:
               1
     1  C   -0.159009
     2  C    0.488389
     3  C   -0.187870
     4  C   -0.072202
     5  S    0.056981
     6  O   -0.424079
     8  C   -0.175866
     9  C    0.509302
    10  C   -0.210813
    11  C   -0.048303
    12  S    0.049052
    13  O   -0.436509
    15  C    0.273869
    18  C    0.322632
    21  O   -0.592025
    22  C    0.285293
    25  C    0.320910
    28  O   -0.585022
    29  C    0.250771
    32  C    0.290177
    35  O   -0.420344
    36  C    0.160930
    40  C    0.279066
    43  C    0.336187
    46  O   -0.593170
    47  C    0.244445
    50  C    0.359278
    53  O   -0.571597
    54  C    0.221282
    57  C    0.294205
    60  O   -0.416069
    61  C    0.160990
    65  Br  -0.004661
    66  Br  -0.006222
 Charge=  -0.00000 Dipole=    -0.0106    -0.0485     0.0028 Tot=     0.0497
 -----------------------------------------------------------------

              Electrostatic Properties (Atomic Units)

 -----------------------------------------------------------------
    Center     Electric         -------- Electric Field --------
               Potential          X             Y             Z
 -----------------------------------------------------------------
    1 Atom    -14.729031
    2 Atom    -14.701293
    3 Atom    -14.761688
    4 Atom    -14.697333
    5 Atom    -59.203239
    6 Atom    -22.324488
    7 Atom     -1.079172
    8 Atom    -14.729045
    9 Atom    -14.700862
   10 Atom    -14.760457
   11 Atom    -14.696975
   12 Atom    -59.204147
   13 Atom    -22.324280
   14 Atom     -1.078531
   15 Atom    -14.705922
   16 Atom     -1.101779
   17 Atom     -1.101733
   18 Atom    -14.715191
   19 Atom     -1.111091
   20 Atom     -1.111097
   21 Atom    -22.358761
   22 Atom    -14.721889
   23 Atom     -1.116913
   24 Atom     -1.116924
   25 Atom    -14.723923
   26 Atom     -1.119042
   27 Atom     -1.119093
   28 Atom    -22.365541
   29 Atom    -14.727003
   30 Atom     -1.121770
   31 Atom     -1.121783
   32 Atom    -14.728585
   33 Atom     -1.122677
   34 Atom     -1.122683
   35 Atom    -22.370780
   36 Atom    -14.730748
   37 Atom     -1.117419
   38 Atom     -1.114450
   39 Atom     -1.117420
   40 Atom    -14.705777
   41 Atom     -1.101521
   42 Atom     -1.101503
   43 Atom    -14.715022
   44 Atom     -1.110883
   45 Atom     -1.110909
   46 Atom    -22.358637
   47 Atom    -14.721701
   48 Atom     -1.116737
   49 Atom     -1.116819
   50 Atom    -14.723775
   51 Atom     -1.118869
   52 Atom     -1.118904
   53 Atom    -22.365472
   54 Atom    -14.726898
   55 Atom     -1.121628
   56 Atom     -1.121691
   57 Atom    -14.728568
   58 Atom     -1.122589
   59 Atom     -1.122580
   60 Atom    -22.370863
   61 Atom    -14.730772
   62 Atom     -1.117431
   63 Atom     -1.114433
   64 Atom     -1.117489
   65 Atom   -175.804961
   66 Atom   -175.804454
 -----------------------------------------------------------------
 Leave Link  602 at Fri Jan 17 13:04:48 2020, MaxMem=  6710886400 cpu:               3.7 elap:               0.9
 (Enter /apps/gaussian/g16-a03/l9999.exe)
 1\1\GINC-CX1-141-15-4\SP\RB3LYP\6-311G(d,p)\C22H32Br2O8S2\NS5018\17-Ja
 n-2020\0\\#p pop=MKUFF b3lyp/6-311g(d,p)\\3G_1m_0sc_Br_opt_pop.gjf\\0,
 1\C,0,0.152,0.706,-0.001\C,0,1.398,1.313,-0.001\C,0,1.356,2.736,-0.001
 \C,0,0.078,3.212,-0.001\S,0,-1.096,1.945,-0.001\O,0,2.523,0.542,0.\H,0
 ,2.229,3.372,0.\C,0,-0.152,-0.706,-0.001\C,0,-1.398,-1.313,-0.001\C,0,
 -1.357,-2.736,-0.001\C,0,-0.078,-3.212,-0.001\S,0,1.096,-1.946,0.\O,0,
 -2.523,-0.542,-0.001\H,0,-2.229,-3.373,-0.001\C,0,3.788,1.197,0.\H,0,3
 .899,1.826,0.89\H,0,3.899,1.826,-0.891\C,0,4.85,0.113,0.\H,0,4.735,-0.
 523,0.889\H,0,4.735,-0.523,-0.889\O,0,6.104,0.768,0.\C,0,7.206,-0.122,
 0.\H,0,7.189,-0.768,0.889\H,0,7.189,-0.768,-0.889\C,0,8.472,0.716,0.\H
 ,0,8.487,1.363,0.889\H,0,8.488,1.363,-0.888\O,0,9.571,-0.174,0.\C,0,10
 .827,0.48,0.001\H,0,10.938,1.117,0.889\H,0,10.939,1.117,-0.888\C,0,11.
 903,-0.591,0.001\H,0,11.789,-1.229,-0.888\H,0,11.789,-1.229,0.89\O,0,1
 3.155,0.064,0.001\C,0,14.246,-0.833,0.001\H,0,14.242,-1.476,-0.891\H,0
 ,15.157,-0.234,0.001\H,0,14.242,-1.476,0.893\C,0,-3.788,-1.198,-0.001\
 H,0,-3.899,-1.826,0.89\H,0,-3.899,-1.826,-0.891\C,0,-4.85,-0.113,0.\H,
 0,-4.735,0.522,0.889\H,0,-4.735,0.522,-0.89\O,0,-6.104,-0.768,0.\C,0,-
 7.206,0.122,0.\H,0,-7.189,0.769,0.889\H,0,-7.189,0.768,-0.889\C,0,-8.4
 72,-0.716,0.\H,0,-8.488,-1.363,0.889\H,0,-8.488,-1.363,-0.888\O,0,-9.5
 71,0.175,0.\C,0,-10.827,-0.479,0.001\H,0,-10.938,-1.116,0.89\H,0,-10.9
 39,-1.116,-0.888\C,0,-11.902,0.592,0.001\H,0,-11.789,1.23,-0.888\H,0,-
 11.788,1.23,0.89\O,0,-13.155,-0.063,0.001\C,0,-14.246,0.834,0.001\H,0,
 -14.242,1.477,-0.891\H,0,-15.157,0.235,0.002\H,0,-14.241,1.477,0.893\B
 r,0,-0.15708503,5.12762884,0.00007664\Br,0,0.25292729,-5.11341673,0.00
 024063\\Version=ES64L-G16RevA.03\State=1-A\HF=-7404.349868\RMSD=6.216e
 -09\Dipole=-0.0053137,-0.0148107,0.0013312\Quadrupole=25.2967722,-13.0
 694141,-12.2273581,-11.3094221,0.0074889,0.004628\PG=C01 [X(C22H32Br2O
 8S2)]\\@


 COLLEGE PROFESSOR: SOMEONE WHO TALKS IN OTHER PEOPLE'S SLEEP.
 Job cpu time:       0 days  0 hours 31 minutes 52.0 seconds.
 Elapsed time:       0 days  0 hours  7 minutes 58.9 seconds.
 File lengths (MBytes):  RWF=    414 Int=      0 D2E=      0 Chk=     45 Scr=      1
 Normal termination of Gaussian 16 at Fri Jan 17 13:04:49 2020.
