 Entering Gaussian System, Link 0=g16
 Input=OBT_1m_0sc_Br_opt_pop.gjf
 Output=OBT_1m_0sc_Br_opt_pop.log
 Initial command:
 /apps/gaussian/g16-a03/l1.exe "/tmp/pbs.978994.pbs/Gau-21314.inp" -scrdir="/tmp/pbs.978994.pbs/"
 Entering Link 1 = /apps/gaussian/g16-a03/l1.exe PID=     21315.
  
 Copyright (c) 1988,1990,1992,1993,1995,1998,2003,2009,2016,
            Gaussian, Inc.  All Rights Reserved.
  
 This is part of the Gaussian(R) 16 program.  It is based on
 the Gaussian(R) 09 system (copyright 2009, Gaussian, Inc.),
 the Gaussian(R) 03 system (copyright 2003, Gaussian, Inc.),
 the Gaussian(R) 98 system (copyright 1998, Gaussian, Inc.),
 the Gaussian(R) 94 system (copyright 1995, Gaussian, Inc.),
 the Gaussian 92(TM) system (copyright 1992, Gaussian, Inc.),
 the Gaussian 90(TM) system (copyright 1990, Gaussian, Inc.),
 the Gaussian 88(TM) system (copyright 1988, Gaussian, Inc.),
 the Gaussian 86(TM) system (copyright 1986, Carnegie Mellon
 University), and the Gaussian 82(TM) system (copyright 1983,
 Carnegie Mellon University). Gaussian is a federally registered
 trademark of Gaussian, Inc.
  
 This software contains proprietary and confidential information,
 including trade secrets, belonging to Gaussian, Inc.
  
 This software is provided under written license and may be
 used, copied, transmitted, or stored only in accord with that
 written license.
  
 The following legend is applicable only to US Government
 contracts under FAR:
  
                    RESTRICTED RIGHTS LEGEND
  
 Use, reproduction and disclosure by the US Government is
 subject to restrictions as set forth in subparagraphs (a)
 and (c) of the Commercial Computer Software - Restricted
 Rights clause in FAR 52.227-19.
  
 Gaussian, Inc.
 340 Quinnipiac St., Bldg. 40, Wallingford CT 06492
  
  
 ---------------------------------------------------------------
 Warning -- This program may not be used in any manner that
 competes with the business of Gaussian, Inc. or will provide
 assistance to any competitor of Gaussian, Inc.  The licensee
 of this program is prohibited from giving any competitor of
 Gaussian, Inc. access to this program.  By using this program,
 the user acknowledges that Gaussian, Inc. is engaged in the
 business of creating and licensing software in the field of
 computational chemistry and represents and warrants to the
 licensee that it is not a competitor of Gaussian, Inc. and that
 it will not use this program in any manner prohibited above.
 ---------------------------------------------------------------
  

 Cite this work as:
 Gaussian 16, Revision A.03,
 M. J. Frisch, G. W. Trucks, H. B. Schlegel, G. E. Scuseria, 
 M. A. Robb, J. R. Cheeseman, G. Scalmani, V. Barone, 
 G. A. Petersson, H. Nakatsuji, X. Li, M. Caricato, A. V. Marenich, 
 J. Bloino, B. G. Janesko, R. Gomperts, B. Mennucci, H. P. Hratchian, 
 J. V. Ortiz, A. F. Izmaylov, J. L. Sonnenberg, D. Williams-Young, 
 F. Ding, F. Lipparini, F. Egidi, J. Goings, B. Peng, A. Petrone, 
 T. Henderson, D. Ranasinghe, V. G. Zakrzewski, J. Gao, N. Rega, 
 G. Zheng, W. Liang, M. Hada, M. Ehara, K. Toyota, R. Fukuda, 
 J. Hasegawa, M. Ishida, T. Nakajima, Y. Honda, O. Kitao, H. Nakai, 
 T. Vreven, K. Throssell, J. A. Montgomery, Jr., J. E. Peralta, 
 F. Ogliaro, M. J. Bearpark, J. J. Heyd, E. N. Brothers, K. N. Kudin, 
 V. N. Staroverov, T. A. Keith, R. Kobayashi, J. Normand, 
 K. Raghavachari, A. P. Rendell, J. C. Burant, S. S. Iyengar, 
 J. Tomasi, M. Cossi, J. M. Millam, M. Klene, C. Adamo, R. Cammi, 
 J. W. Ochterski, R. L. Martin, K. Morokuma, O. Farkas, 
 J. B. Foresman, and D. J. Fox, Gaussian, Inc., Wallingford CT, 2016.
 
 ******************************************
 Gaussian 16:  ES64L-G16RevA.03 25-Dec-2016
                20-Jan-2020 
 ******************************************
 %mem=50GB
 %nprocshared=8
 Will use up to    8 processors via shared memory.
 ----------------------------------
 #p opt pop=MKUFF b3lyp/6-311g(d,p)
 ----------------------------------
 1/18=20,19=15,26=3,38=1/1,3;
 2/9=110,12=2,17=6,18=5,40=1/2;
 3/5=4,6=6,7=101,11=2,25=1,30=1,71=1,74=-5/1,2,3;
 4//1;
 5/5=2,38=5/2;
 6/7=2,8=2,9=2,10=2,15=8,20=4,28=1/1,2;
 7//1,2,3,16;
 1/18=20,19=15,26=3/3(2);
 2/9=110/2;
 99//99;
 2/9=110/2;
 3/5=4,6=6,7=101,11=2,25=1,30=1,71=1,74=-5/1,2,3;
 4/5=5,16=3,69=1/1;
 5/5=2,38=5/2;
 7//1,2,3,16;
 1/18=20,19=15,26=3/3(-5);
 2/9=110/2;
 6/7=2,8=2,9=2,10=2,15=8,19=2,20=4,28=1/1,2;
 99/9=1/99;
 Leave Link    1 at Mon Jan 20 17:02:06 2020, MaxMem=  6710886400 cpu:               0.2 elap:               0.0
 (Enter /apps/gaussian/g16-a03/l101.exe)
 ----------------------
 OBT_1m_14sc_Sn_opt.gjf
 ----------------------
 Symbolic Z-matrix:
 Charge =  0 Multiplicity = 1
 C                     0.48906   1.15447  -0.94586 
 C                     1.73506   1.76147  -0.94586 
 C                     1.69306   3.18447  -0.94586 
 C                     0.41506   3.66047  -0.94586 
 S                    -0.75894   2.39347  -0.94586 
 O                     2.86006   0.99047  -0.94486 
 H                     2.56606   3.82047  -0.94486 
 C                     0.18506  -0.25753  -0.94586 
 C                    -1.06094  -0.86453  -0.94586 
 C                    -1.01994  -2.28753  -0.94586 
 C                     0.25906  -2.76353  -0.94586 
 S                     1.43306  -1.49753  -0.94486 
 O                    -2.18594  -0.09353  -0.94586 
 H                    -1.89194  -2.92453  -0.94586 
 C                     4.13745   1.63312  -0.93146 
 H                     4.23613   2.24873  -1.80105 
 H                     4.22257   2.23926  -0.05383 
 C                     5.24855   0.56679  -0.92862 
 H                     5.15401  -0.04448  -0.05551 
 H                     5.15923  -0.04371  -1.80281 
 C                     6.62425   1.25891  -0.9242 
 H                     7.39624   0.51802  -0.92091 
 H                     6.71929   1.86917  -1.79796 
 C                     6.75206   2.13904   0.33303 
 H                     6.37639   3.11853   0.12241 
 H                     6.18754   1.70459   1.13145 
 C                     8.23304   2.23471   0.74429 
 H                     8.80902   2.60133  -0.07958 
 H                     8.33044   2.90399   1.57343 
 C                     8.74488   0.83948   1.14793 
 H                     8.01037   0.35174   1.75417 
 H                     8.925     0.25741   0.26836 
 C                     10.05462   0.98395   1.945 
 H                     10.45371   0.01346   2.15423 
 H                     9.85808   1.49461   2.86451 
 C                     11.07284   1.79023   1.11751 
 H                     10.84898   2.83368   1.19499 
 H                     11.01782   1.4888    0.09232 
 C                     12.49245   1.52855   1.65403 
 H                     12.52671   1.75732   2.69872 
 H                     12.74574   0.4996    1.50574 
 C                     13.49819   2.41855   0.90038 
 H                     13.24876   3.44767   1.05401 
 H                     13.45927   2.19435  -0.14514 
 H                     14.52634   2.61875   0.82736 
 C                    -2.71751  -1.00327  -1.91266 
 H                    -1.96942  -1.22191  -2.64578 
 H                    -3.01453  -1.90833  -1.42527 
 C                    -3.93916  -0.3657   -2.60018 
 H                    -3.61033   0.25791  -3.40509 
 H                    -4.57547  -1.13613  -2.98289 
 C                    -4.71828   0.48316  -1.57841 
 H                    -4.35907   1.49074  -1.60401 
 H                    -4.57738   0.07908  -0.59771 
 C                    -6.21718   0.46343  -1.93126 
 H                    -6.7452    1.13034  -1.28217 
 H                    -6.34876   0.77502  -2.94639 
 C                    -6.76675  -0.96462  -1.75728 
 H                    -6.45322  -1.57034  -2.58171 
 H                    -6.39309  -1.38198  -0.84564 
 C                    -8.30534  -0.92018  -1.70881 
 H                    -8.68999  -1.91797  -1.67192 
 H                    -8.61941  -0.38441  -0.83749 
 C                    -8.8383   -0.21078  -2.96751 
 H                    -8.75322   0.84852  -2.84289 
 H                    -8.26647  -0.51686  -3.81852 
 C                    -10.31673  -0.58547  -3.18073 
 H                    -10.87514  -0.34988  -2.29893 
 H                    -10.39358  -1.63352  -3.38218 
 C                    -10.88085   0.20918  -4.37317 
 H                    -10.8159   1.25697  -4.16626 
 H                    -10.31423  -0.01657  -5.2523 
 C                    -12.35398  -0.1793   -4.59809 
 H                    -12.91853   0.03637  -3.7151 
 H                    -12.74909   0.38081  -5.41972 
 H                    -12.41967  -1.08473  -5.12571 
 Br                    0.9022   -4.47003  -1.47901 
 Br                   -0.09658   5.28376  -1.79033 
 
 ITRead=  0  0  0  0  0  0  0  0  0  0  0  0  0  0  0  0  0  0  0  0
 ITRead=  0  0  0  0  0  0  0  0  0  0  0  0  0  0  0  0  0  0  0  0
 ITRead=  0  0  0  0  0  0  0  0  0  0  0  0  0  0  0  0  0  0  0  0
 ITRead=  0  0  0  0  0  0  0  0  0  0  0  0  0  0  0  0  0  0
 MicOpt= -1 -1 -1 -1 -1 -1 -1 -1 -1 -1 -1 -1 -1 -1 -1 -1 -1 -1 -1 -1
 MicOpt= -1 -1 -1 -1 -1 -1 -1 -1 -1 -1 -1 -1 -1 -1 -1 -1 -1 -1 -1 -1
 MicOpt= -1 -1 -1 -1 -1 -1 -1 -1 -1 -1 -1 -1 -1 -1 -1 -1 -1 -1 -1 -1
 MicOpt= -1 -1 -1 -1 -1 -1 -1 -1 -1 -1 -1 -1 -1 -1 -1 -1 -1 -1
 NAtoms=     78 NQM=       78 NQMF=       0 NMMI=      0 NMMIF=      0
                NMic=       0 NMicF=      0.
                    Isotopes and Nuclear Properties:
 (Nuclear quadrupole moments (NQMom) in fm**2, nuclear magnetic moments (NMagM)
  in nuclear magnetons)

  Atom         1           2           3           4           5           6           7           8           9          10
 IAtWgt=          12          12          12          12          32          16           1          12          12          12
 AtmWgt=  12.0000000  12.0000000  12.0000000  12.0000000  31.9720718  15.9949146   1.0078250  12.0000000  12.0000000  12.0000000
 NucSpn=           0           0           0           0           0           0           1           0           0           0
 AtZEff=  -0.0000000  -0.0000000  -0.0000000  -0.0000000  -0.0000000  -0.0000000  -0.0000000  -0.0000000  -0.0000000  -0.0000000
 NQMom=    0.0000000   0.0000000   0.0000000   0.0000000   0.0000000   0.0000000   0.0000000   0.0000000   0.0000000   0.0000000
 NMagM=    0.0000000   0.0000000   0.0000000   0.0000000   0.0000000   0.0000000   2.7928460   0.0000000   0.0000000   0.0000000
 AtZNuc=   6.0000000   6.0000000   6.0000000   6.0000000  16.0000000   8.0000000   1.0000000   6.0000000   6.0000000   6.0000000

  Atom        11          12          13          14          15          16          17          18          19          20
 IAtWgt=          12          32          16           1          12           1           1          12           1           1
 AtmWgt=  12.0000000  31.9720718  15.9949146   1.0078250  12.0000000   1.0078250   1.0078250  12.0000000   1.0078250   1.0078250
 NucSpn=           0           0           0           1           0           1           1           0           1           1
 AtZEff=  -0.0000000  -0.0000000  -0.0000000  -0.0000000  -0.0000000  -0.0000000  -0.0000000  -0.0000000  -0.0000000  -0.0000000
 NQMom=    0.0000000   0.0000000   0.0000000   0.0000000   0.0000000   0.0000000   0.0000000   0.0000000   0.0000000   0.0000000
 NMagM=    0.0000000   0.0000000   0.0000000   2.7928460   0.0000000   2.7928460   2.7928460   0.0000000   2.7928460   2.7928460
 AtZNuc=   6.0000000  16.0000000   8.0000000   1.0000000   6.0000000   1.0000000   1.0000000   6.0000000   1.0000000   1.0000000

  Atom        21          22          23          24          25          26          27          28          29          30
 IAtWgt=          12           1           1          12           1           1          12           1           1          12
 AtmWgt=  12.0000000   1.0078250   1.0078250  12.0000000   1.0078250   1.0078250  12.0000000   1.0078250   1.0078250  12.0000000
 NucSpn=           0           1           1           0           1           1           0           1           1           0
 AtZEff=  -0.0000000  -0.0000000  -0.0000000  -0.0000000  -0.0000000  -0.0000000  -0.0000000  -0.0000000  -0.0000000  -0.0000000
 NQMom=    0.0000000   0.0000000   0.0000000   0.0000000   0.0000000   0.0000000   0.0000000   0.0000000   0.0000000   0.0000000
 NMagM=    0.0000000   2.7928460   2.7928460   0.0000000   2.7928460   2.7928460   0.0000000   2.7928460   2.7928460   0.0000000
 AtZNuc=   6.0000000   1.0000000   1.0000000   6.0000000   1.0000000   1.0000000   6.0000000   1.0000000   1.0000000   6.0000000

  Atom        31          32          33          34          35          36          37          38          39          40
 IAtWgt=           1           1          12           1           1          12           1           1          12           1
 AtmWgt=   1.0078250   1.0078250  12.0000000   1.0078250   1.0078250  12.0000000   1.0078250   1.0078250  12.0000000   1.0078250
 NucSpn=           1           1           0           1           1           0           1           1           0           1
 AtZEff=  -0.0000000  -0.0000000  -0.0000000  -0.0000000  -0.0000000  -0.0000000  -0.0000000  -0.0000000  -0.0000000  -0.0000000
 NQMom=    0.0000000   0.0000000   0.0000000   0.0000000   0.0000000   0.0000000   0.0000000   0.0000000   0.0000000   0.0000000
 NMagM=    2.7928460   2.7928460   0.0000000   2.7928460   2.7928460   0.0000000   2.7928460   2.7928460   0.0000000   2.7928460
 AtZNuc=   1.0000000   1.0000000   6.0000000   1.0000000   1.0000000   6.0000000   1.0000000   1.0000000   6.0000000   1.0000000

  Atom        41          42          43          44          45          46          47          48          49          50
 IAtWgt=           1          12           1           1           1          12           1           1          12           1
 AtmWgt=   1.0078250  12.0000000   1.0078250   1.0078250   1.0078250  12.0000000   1.0078250   1.0078250  12.0000000   1.0078250
 NucSpn=           1           0           1           1           1           0           1           1           0           1
 AtZEff=  -0.0000000  -0.0000000  -0.0000000  -0.0000000  -0.0000000  -0.0000000  -0.0000000  -0.0000000  -0.0000000  -0.0000000
 NQMom=    0.0000000   0.0000000   0.0000000   0.0000000   0.0000000   0.0000000   0.0000000   0.0000000   0.0000000   0.0000000
 NMagM=    2.7928460   0.0000000   2.7928460   2.7928460   2.7928460   0.0000000   2.7928460   2.7928460   0.0000000   2.7928460
 AtZNuc=   1.0000000   6.0000000   1.0000000   1.0000000   1.0000000   6.0000000   1.0000000   1.0000000   6.0000000   1.0000000

  Atom        51          52          53          54          55          56          57          58          59          60
 IAtWgt=           1          12           1           1          12           1           1          12           1           1
 AtmWgt=   1.0078250  12.0000000   1.0078250   1.0078250  12.0000000   1.0078250   1.0078250  12.0000000   1.0078250   1.0078250
 NucSpn=           1           0           1           1           0           1           1           0           1           1
 AtZEff=  -0.0000000  -0.0000000  -0.0000000  -0.0000000  -0.0000000  -0.0000000  -0.0000000  -0.0000000  -0.0000000  -0.0000000
 NQMom=    0.0000000   0.0000000   0.0000000   0.0000000   0.0000000   0.0000000   0.0000000   0.0000000   0.0000000   0.0000000
 NMagM=    2.7928460   0.0000000   2.7928460   2.7928460   0.0000000   2.7928460   2.7928460   0.0000000   2.7928460   2.7928460
 AtZNuc=   1.0000000   6.0000000   1.0000000   1.0000000   6.0000000   1.0000000   1.0000000   6.0000000   1.0000000   1.0000000

  Atom        61          62          63          64          65          66          67          68          69          70
 IAtWgt=          12           1           1          12           1           1          12           1           1          12
 AtmWgt=  12.0000000   1.0078250   1.0078250  12.0000000   1.0078250   1.0078250  12.0000000   1.0078250   1.0078250  12.0000000
 NucSpn=           0           1           1           0           1           1           0           1           1           0
 AtZEff=  -0.0000000  -0.0000000  -0.0000000  -0.0000000  -0.0000000  -0.0000000  -0.0000000  -0.0000000  -0.0000000  -0.0000000
 NQMom=    0.0000000   0.0000000   0.0000000   0.0000000   0.0000000   0.0000000   0.0000000   0.0000000   0.0000000   0.0000000
 NMagM=    0.0000000   2.7928460   2.7928460   0.0000000   2.7928460   2.7928460   0.0000000   2.7928460   2.7928460   0.0000000
 AtZNuc=   6.0000000   1.0000000   1.0000000   6.0000000   1.0000000   1.0000000   6.0000000   1.0000000   1.0000000   6.0000000

  Atom        71          72          73          74          75          76          77          78
 IAtWgt=           1           1          12           1           1           1          79          79
 AtmWgt=   1.0078250   1.0078250  12.0000000   1.0078250   1.0078250   1.0078250  78.9183361  78.9183361
 NucSpn=           1           1           0           1           1           1           3           3
 AtZEff=  -0.0000000  -0.0000000  -0.0000000  -0.0000000  -0.0000000  -0.0000000  -0.0000000  -0.0000000
 NQMom=    0.0000000   0.0000000   0.0000000   0.0000000   0.0000000   0.0000000  31.3000000  31.3000000
 NMagM=    2.7928460   2.7928460   0.0000000   2.7928460   2.7928460   2.7928460   2.1063990   2.1063990
 AtZNuc=   1.0000000   1.0000000   6.0000000   1.0000000   1.0000000   1.0000000  35.0000000  35.0000000
 Leave Link  101 at Mon Jan 20 17:02:07 2020, MaxMem=  6710886400 cpu:               3.5 elap:               0.5
 (Enter /apps/gaussian/g16-a03/l103.exe)

 GradGradGradGradGradGradGradGradGradGradGradGradGradGradGradGradGradGrad
 Berny optimization.
 Initialization pass.
                           ----------------------------
                           !    Initial Parameters    !
                           ! (Angstroms and Degrees)  !
 --------------------------                            --------------------------
 ! Name  Definition              Value          Derivative Info.                !
 --------------------------------------------------------------------------------
 ! R1    R(1,2)                  1.386          estimate D2E/DX2                !
 ! R2    R(1,5)                  1.7586         estimate D2E/DX2                !
 ! R3    R(1,8)                  1.4444         estimate D2E/DX2                !
 ! R4    R(2,3)                  1.4236         estimate D2E/DX2                !
 ! R5    R(2,6)                  1.3638         estimate D2E/DX2                !
 ! R6    R(3,4)                  1.3638         estimate D2E/DX2                !
 ! R7    R(3,7)                  1.0801         estimate D2E/DX2                !
 ! R8    R(4,5)                  1.7273         estimate D2E/DX2                !
 ! R9    R(4,78)                 1.9            estimate D2E/DX2                !
 ! R10   R(6,15)                 1.43           estimate D2E/DX2                !
 ! R11   R(8,9)                  1.386          estimate D2E/DX2                !
 ! R12   R(8,12)                 1.7593         estimate D2E/DX2                !
 ! R13   R(9,10)                 1.4236         estimate D2E/DX2                !
 ! R14   R(9,13)                 1.3638         estimate D2E/DX2                !
 ! R15   R(10,11)                1.3647         estimate D2E/DX2                !
 ! R16   R(10,14)                1.0799         estimate D2E/DX2                !
 ! R17   R(11,12)                1.7266         estimate D2E/DX2                !
 ! R18   R(11,77)                1.9            estimate D2E/DX2                !
 ! R19   R(13,46)                1.43           estimate D2E/DX2                !
 ! R20   R(15,16)                1.07           estimate D2E/DX2                !
 ! R21   R(15,17)                1.07           estimate D2E/DX2                !
 ! R22   R(15,18)                1.54           estimate D2E/DX2                !
 ! R23   R(18,19)                1.07           estimate D2E/DX2                !
 ! R24   R(18,20)                1.07           estimate D2E/DX2                !
 ! R25   R(18,21)                1.54           estimate D2E/DX2                !
 ! R26   R(21,22)                1.07           estimate D2E/DX2                !
 ! R27   R(21,23)                1.07           estimate D2E/DX2                !
 ! R28   R(21,24)                1.54           estimate D2E/DX2                !
 ! R29   R(24,25)                1.07           estimate D2E/DX2                !
 ! R30   R(24,26)                1.07           estimate D2E/DX2                !
 ! R31   R(24,27)                1.54           estimate D2E/DX2                !
 ! R32   R(27,28)                1.07           estimate D2E/DX2                !
 ! R33   R(27,29)                1.07           estimate D2E/DX2                !
 ! R34   R(27,30)                1.54           estimate D2E/DX2                !
 ! R35   R(30,31)                1.07           estimate D2E/DX2                !
 ! R36   R(30,32)                1.07           estimate D2E/DX2                !
 ! R37   R(30,33)                1.54           estimate D2E/DX2                !
 ! R38   R(33,34)                1.07           estimate D2E/DX2                !
 ! R39   R(33,35)                1.07           estimate D2E/DX2                !
 ! R40   R(33,36)                1.54           estimate D2E/DX2                !
 ! R41   R(36,37)                1.07           estimate D2E/DX2                !
 ! R42   R(36,38)                1.07           estimate D2E/DX2                !
 ! R43   R(36,39)                1.54           estimate D2E/DX2                !
 ! R44   R(39,40)                1.07           estimate D2E/DX2                !
 ! R45   R(39,41)                1.07           estimate D2E/DX2                !
 ! R46   R(39,42)                1.54           estimate D2E/DX2                !
 ! R47   R(42,43)                1.07           estimate D2E/DX2                !
 ! R48   R(42,44)                1.07           estimate D2E/DX2                !
 ! R49   R(42,45)                1.05           estimate D2E/DX2                !
 ! R50   R(46,47)                1.07           estimate D2E/DX2                !
 ! R51   R(46,48)                1.07           estimate D2E/DX2                !
 ! R52   R(46,49)                1.54           estimate D2E/DX2                !
 ! R53   R(49,50)                1.07           estimate D2E/DX2                !
 ! R54   R(49,51)                1.07           estimate D2E/DX2                !
 ! R55   R(49,52)                1.54           estimate D2E/DX2                !
 ! R56   R(52,53)                1.07           estimate D2E/DX2                !
 ! R57   R(52,54)                1.07           estimate D2E/DX2                !
 ! R58   R(52,55)                1.54           estimate D2E/DX2                !
 ! R59   R(55,56)                1.07           estimate D2E/DX2                !
 ! R60   R(55,57)                1.07           estimate D2E/DX2                !
 ! R61   R(55,58)                1.54           estimate D2E/DX2                !
 ! R62   R(58,59)                1.07           estimate D2E/DX2                !
 ! R63   R(58,60)                1.07           estimate D2E/DX2                !
 ! R64   R(58,61)                1.54           estimate D2E/DX2                !
 ! R65   R(61,62)                1.07           estimate D2E/DX2                !
 ! R66   R(61,63)                1.07           estimate D2E/DX2                !
 ! R67   R(61,64)                1.54           estimate D2E/DX2                !
 ! R68   R(64,65)                1.07           estimate D2E/DX2                !
 ! R69   R(64,66)                1.07           estimate D2E/DX2                !
 ! R70   R(64,67)                1.54           estimate D2E/DX2                !
 ! R71   R(67,68)                1.07           estimate D2E/DX2                !
 ! R72   R(67,69)                1.07           estimate D2E/DX2                !
 ! R73   R(67,70)                1.54           estimate D2E/DX2                !
 ! R74   R(70,71)                1.07           estimate D2E/DX2                !
 ! R75   R(70,72)                1.07           estimate D2E/DX2                !
 ! R76   R(70,73)                1.54           estimate D2E/DX2                !
 ! R77   R(73,74)                1.07           estimate D2E/DX2                !
 ! R78   R(73,75)                1.07           estimate D2E/DX2                !
 ! R79   R(73,76)                1.05           estimate D2E/DX2                !
 ! A1    A(2,1,5)              109.2339         estimate D2E/DX2                !
 ! A2    A(2,1,8)              128.1236         estimate D2E/DX2                !
 ! A3    A(5,1,8)              122.6425         estimate D2E/DX2                !
 ! A4    A(1,2,3)              114.2828         estimate D2E/DX2                !
 ! A5    A(1,2,6)              119.6024         estimate D2E/DX2                !
 ! A6    A(3,2,6)              126.1147         estimate D2E/DX2                !
 ! A7    A(2,3,4)              112.1188         estimate D2E/DX2                !
 ! A8    A(2,3,7)              124.3836         estimate D2E/DX2                !
 ! A9    A(4,3,7)              123.4976         estimate D2E/DX2                !
 ! A10   A(3,4,5)              112.3899         estimate D2E/DX2                !
 ! A11   A(3,4,78)             123.4048         estimate D2E/DX2                !
 ! A12   A(5,4,78)             116.338          estimate D2E/DX2                !
 ! A13   A(1,5,4)               91.9745         estimate D2E/DX2                !
 ! A14   A(2,6,15)             118.868          estimate D2E/DX2                !
 ! A15   A(1,8,9)              128.1236         estimate D2E/DX2                !
 ! A16   A(1,8,12)             122.6656         estimate D2E/DX2                !
 ! A17   A(9,8,12)             109.2108         estimate D2E/DX2                !
 ! A18   A(8,9,10)             114.3231         estimate D2E/DX2                !
 ! A19   A(8,9,13)             119.6024         estimate D2E/DX2                !
 ! A20   A(10,9,13)            126.0745         estimate D2E/DX2                !
 ! A21   A(9,10,11)            112.0639         estimate D2E/DX2                !
 ! A22   A(9,10,14)            124.4979         estimate D2E/DX2                !
 ! A23   A(11,10,14)           123.4382         estimate D2E/DX2                !
 ! A24   A(10,11,12)           112.4271         estimate D2E/DX2                !
 ! A25   A(10,11,77)           129.0876         estimate D2E/DX2                !
 ! A26   A(12,11,77)           115.3767         estimate D2E/DX2                !
 ! A27   A(8,12,11)             91.9751         estimate D2E/DX2                !
 ! A28   A(9,13,46)             86.9611         estimate D2E/DX2                !
 ! A29   A(6,15,16)            109.4712         estimate D2E/DX2                !
 ! A30   A(6,15,17)            109.4712         estimate D2E/DX2                !
 ! A31   A(6,15,18)            109.4712         estimate D2E/DX2                !
 ! A32   A(16,15,17)           109.4713         estimate D2E/DX2                !
 ! A33   A(16,15,18)           109.4712         estimate D2E/DX2                !
 ! A34   A(17,15,18)           109.4712         estimate D2E/DX2                !
 ! A35   A(15,18,19)           109.4712         estimate D2E/DX2                !
 ! A36   A(15,18,20)           109.4712         estimate D2E/DX2                !
 ! A37   A(15,18,21)           109.4712         estimate D2E/DX2                !
 ! A38   A(19,18,20)           109.4713         estimate D2E/DX2                !
 ! A39   A(19,18,21)           109.4712         estimate D2E/DX2                !
 ! A40   A(20,18,21)           109.4712         estimate D2E/DX2                !
 ! A41   A(18,21,22)           109.4712         estimate D2E/DX2                !
 ! A42   A(18,21,23)           109.4712         estimate D2E/DX2                !
 ! A43   A(18,21,24)           109.4712         estimate D2E/DX2                !
 ! A44   A(22,21,23)           109.4712         estimate D2E/DX2                !
 ! A45   A(22,21,24)           109.4713         estimate D2E/DX2                !
 ! A46   A(23,21,24)           109.4712         estimate D2E/DX2                !
 ! A47   A(21,24,25)           109.4712         estimate D2E/DX2                !
 ! A48   A(21,24,26)           109.4712         estimate D2E/DX2                !
 ! A49   A(21,24,27)           109.4712         estimate D2E/DX2                !
 ! A50   A(25,24,26)           109.4712         estimate D2E/DX2                !
 ! A51   A(25,24,27)           109.4713         estimate D2E/DX2                !
 ! A52   A(26,24,27)           109.4712         estimate D2E/DX2                !
 ! A53   A(24,27,28)           109.4712         estimate D2E/DX2                !
 ! A54   A(24,27,29)           109.4712         estimate D2E/DX2                !
 ! A55   A(24,27,30)           109.4712         estimate D2E/DX2                !
 ! A56   A(28,27,29)           109.4713         estimate D2E/DX2                !
 ! A57   A(28,27,30)           109.4712         estimate D2E/DX2                !
 ! A58   A(29,27,30)           109.4712         estimate D2E/DX2                !
 ! A59   A(27,30,31)           109.4712         estimate D2E/DX2                !
 ! A60   A(27,30,32)           109.4712         estimate D2E/DX2                !
 ! A61   A(27,30,33)           109.4712         estimate D2E/DX2                !
 ! A62   A(31,30,32)           109.4713         estimate D2E/DX2                !
 ! A63   A(31,30,33)           109.4712         estimate D2E/DX2                !
 ! A64   A(32,30,33)           109.4712         estimate D2E/DX2                !
 ! A65   A(30,33,34)           109.4712         estimate D2E/DX2                !
 ! A66   A(30,33,35)           109.4712         estimate D2E/DX2                !
 ! A67   A(30,33,36)           109.4712         estimate D2E/DX2                !
 ! A68   A(34,33,35)           109.4712         estimate D2E/DX2                !
 ! A69   A(34,33,36)           109.4713         estimate D2E/DX2                !
 ! A70   A(35,33,36)           109.4712         estimate D2E/DX2                !
 ! A71   A(33,36,37)           109.4712         estimate D2E/DX2                !
 ! A72   A(33,36,38)           109.4712         estimate D2E/DX2                !
 ! A73   A(33,36,39)           109.4712         estimate D2E/DX2                !
 ! A74   A(37,36,38)           109.4712         estimate D2E/DX2                !
 ! A75   A(37,36,39)           109.4713         estimate D2E/DX2                !
 ! A76   A(38,36,39)           109.4712         estimate D2E/DX2                !
 ! A77   A(36,39,40)           109.4712         estimate D2E/DX2                !
 ! A78   A(36,39,41)           109.4712         estimate D2E/DX2                !
 ! A79   A(36,39,42)           109.4712         estimate D2E/DX2                !
 ! A80   A(40,39,41)           109.4712         estimate D2E/DX2                !
 ! A81   A(40,39,42)           109.4713         estimate D2E/DX2                !
 ! A82   A(41,39,42)           109.4712         estimate D2E/DX2                !
 ! A83   A(39,42,43)           109.4712         estimate D2E/DX2                !
 ! A84   A(39,42,44)           109.4712         estimate D2E/DX2                !
 ! A85   A(39,42,45)           141.6018         estimate D2E/DX2                !
 ! A86   A(43,42,44)           109.4712         estimate D2E/DX2                !
 ! A87   A(43,42,45)            93.1451         estimate D2E/DX2                !
 ! A88   A(44,42,45)            90.4369         estimate D2E/DX2                !
 ! A89   A(13,46,47)           109.4712         estimate D2E/DX2                !
 ! A90   A(13,46,48)           109.4712         estimate D2E/DX2                !
 ! A91   A(13,46,49)           109.4712         estimate D2E/DX2                !
 ! A92   A(47,46,48)           109.4713         estimate D2E/DX2                !
 ! A93   A(47,46,49)           109.4712         estimate D2E/DX2                !
 ! A94   A(48,46,49)           109.4712         estimate D2E/DX2                !
 ! A95   A(46,49,50)           109.4712         estimate D2E/DX2                !
 ! A96   A(46,49,51)           109.4712         estimate D2E/DX2                !
 ! A97   A(46,49,52)           109.4712         estimate D2E/DX2                !
 ! A98   A(50,49,51)           109.4712         estimate D2E/DX2                !
 ! A99   A(50,49,52)           109.4713         estimate D2E/DX2                !
 ! A100  A(51,49,52)           109.4712         estimate D2E/DX2                !
 ! A101  A(49,52,53)           109.4712         estimate D2E/DX2                !
 ! A102  A(49,52,54)           109.4712         estimate D2E/DX2                !
 ! A103  A(49,52,55)           109.4712         estimate D2E/DX2                !
 ! A104  A(53,52,54)           109.4712         estimate D2E/DX2                !
 ! A105  A(53,52,55)           109.4713         estimate D2E/DX2                !
 ! A106  A(54,52,55)           109.4712         estimate D2E/DX2                !
 ! A107  A(52,55,56)           109.4712         estimate D2E/DX2                !
 ! A108  A(52,55,57)           109.4712         estimate D2E/DX2                !
 ! A109  A(52,55,58)           109.4712         estimate D2E/DX2                !
 ! A110  A(56,55,57)           109.4713         estimate D2E/DX2                !
 ! A111  A(56,55,58)           109.4712         estimate D2E/DX2                !
 ! A112  A(57,55,58)           109.4712         estimate D2E/DX2                !
 ! A113  A(55,58,59)           109.4712         estimate D2E/DX2                !
 ! A114  A(55,58,60)           109.4712         estimate D2E/DX2                !
 ! A115  A(55,58,61)           109.4712         estimate D2E/DX2                !
 ! A116  A(59,58,60)           109.4713         estimate D2E/DX2                !
 ! A117  A(59,58,61)           109.4712         estimate D2E/DX2                !
 ! A118  A(60,58,61)           109.4712         estimate D2E/DX2                !
 ! A119  A(58,61,62)           109.4712         estimate D2E/DX2                !
 ! A120  A(58,61,63)           109.4712         estimate D2E/DX2                !
 ! A121  A(58,61,64)           109.4712         estimate D2E/DX2                !
 ! A122  A(62,61,63)           109.4712         estimate D2E/DX2                !
 ! A123  A(62,61,64)           109.4713         estimate D2E/DX2                !
 ! A124  A(63,61,64)           109.4712         estimate D2E/DX2                !
 ! A125  A(61,64,65)           109.4712         estimate D2E/DX2                !
 ! A126  A(61,64,66)           109.4712         estimate D2E/DX2                !
 ! A127  A(61,64,67)           109.4712         estimate D2E/DX2                !
 ! A128  A(65,64,66)           109.4712         estimate D2E/DX2                !
 ! A129  A(65,64,67)           109.4713         estimate D2E/DX2                !
 ! A130  A(66,64,67)           109.4712         estimate D2E/DX2                !
 ! A131  A(64,67,68)           109.4712         estimate D2E/DX2                !
 ! A132  A(64,67,69)           109.4712         estimate D2E/DX2                !
 ! A133  A(64,67,70)           109.4712         estimate D2E/DX2                !
 ! A134  A(68,67,69)           109.4712         estimate D2E/DX2                !
 ! A135  A(68,67,70)           109.4713         estimate D2E/DX2                !
 ! A136  A(69,67,70)           109.4712         estimate D2E/DX2                !
 ! A137  A(67,70,71)           109.4712         estimate D2E/DX2                !
 ! A138  A(67,70,72)           109.4712         estimate D2E/DX2                !
 ! A139  A(67,70,73)           109.4712         estimate D2E/DX2                !
 ! A140  A(71,70,72)           109.4712         estimate D2E/DX2                !
 ! A141  A(71,70,73)           109.4713         estimate D2E/DX2                !
 ! A142  A(72,70,73)           109.4712         estimate D2E/DX2                !
 ! A143  A(70,73,74)           109.4712         estimate D2E/DX2                !
 ! A144  A(70,73,75)           109.4712         estimate D2E/DX2                !
 ! A145  A(70,73,76)           110.534          estimate D2E/DX2                !
 ! A146  A(74,73,75)           109.4713         estimate D2E/DX2                !
 ! A147  A(74,73,76)           123.7427         estimate D2E/DX2                !
 ! A148  A(75,73,76)            92.432          estimate D2E/DX2                !
 ! D1    D(5,1,2,3)              0.0            estimate D2E/DX2                !
 ! D2    D(5,1,2,6)            179.9517         estimate D2E/DX2                !
 ! D3    D(8,1,2,3)            180.0            estimate D2E/DX2                !
 ! D4    D(8,1,2,6)             -0.0483         estimate D2E/DX2                !
 ! D5    D(2,1,5,4)              0.0            estimate D2E/DX2                !
 ! D6    D(8,1,5,4)            180.0            estimate D2E/DX2                !
 ! D7    D(2,1,8,9)            180.0            estimate D2E/DX2                !
 ! D8    D(2,1,8,12)             0.0387         estimate D2E/DX2                !
 ! D9    D(5,1,8,9)              0.0            estimate D2E/DX2                !
 ! D10   D(5,1,8,12)          -179.9613         estimate D2E/DX2                !
 ! D11   D(1,2,3,4)              0.0            estimate D2E/DX2                !
 ! D12   D(1,2,3,7)            179.9357         estimate D2E/DX2                !
 ! D13   D(6,2,3,4)           -179.948          estimate D2E/DX2                !
 ! D14   D(6,2,3,7)             -0.0123         estimate D2E/DX2                !
 ! D15   D(1,2,6,15)          -179.3864         estimate D2E/DX2                !
 ! D16   D(3,2,6,15)             0.559          estimate D2E/DX2                !
 ! D17   D(2,3,4,5)              0.0            estimate D2E/DX2                !
 ! D18   D(2,3,4,78)          -147.8314         estimate D2E/DX2                !
 ! D19   D(7,3,4,5)           -179.9364         estimate D2E/DX2                !
 ! D20   D(7,3,4,78)            32.2322         estimate D2E/DX2                !
 ! D21   D(3,4,5,1)              0.0            estimate D2E/DX2                !
 ! D22   D(78,4,5,1)           150.2681         estimate D2E/DX2                !
 ! D23   D(2,6,15,16)          -60.1705         estimate D2E/DX2                !
 ! D24   D(2,6,15,17)           59.8296         estimate D2E/DX2                !
 ! D25   D(2,6,15,18)          179.8295         estimate D2E/DX2                !
 ! D26   D(1,8,9,10)           180.0            estimate D2E/DX2                !
 ! D27   D(1,8,9,13)             0.0            estimate D2E/DX2                !
 ! D28   D(12,8,9,10)           -0.0345         estimate D2E/DX2                !
 ! D29   D(12,8,9,13)          179.9655         estimate D2E/DX2                !
 ! D30   D(1,8,12,11)         -179.9866         estimate D2E/DX2                !
 ! D31   D(9,8,12,11)            0.0457         estimate D2E/DX2                !
 ! D32   D(8,9,10,11)            0.0            estimate D2E/DX2                !
 ! D33   D(8,9,10,14)          180.0            estimate D2E/DX2                !
 ! D34   D(13,9,10,11)         180.0            estimate D2E/DX2                !
 ! D35   D(13,9,10,14)           0.0            estimate D2E/DX2                !
 ! D36   D(8,9,13,46)          137.3871         estimate D2E/DX2                !
 ! D37   D(10,9,13,46)         -42.6129         estimate D2E/DX2                !
 ! D38   D(9,10,11,12)           0.0359         estimate D2E/DX2                !
 ! D39   D(9,10,11,77)        -158.8065         estimate D2E/DX2                !
 ! D40   D(14,10,11,12)       -179.9641         estimate D2E/DX2                !
 ! D41   D(14,10,11,77)         21.1935         estimate D2E/DX2                !
 ! D42   D(10,11,12,8)          -0.0474         estimate D2E/DX2                !
 ! D43   D(77,11,12,8)         161.8891         estimate D2E/DX2                !
 ! D44   D(9,13,46,47)         -44.2358         estimate D2E/DX2                !
 ! D45   D(9,13,46,48)          75.7642         estimate D2E/DX2                !
 ! D46   D(9,13,46,49)        -164.2358         estimate D2E/DX2                !
 ! D47   D(6,15,18,19)         -60.395          estimate D2E/DX2                !
 ! D48   D(6,15,18,20)          59.605          estimate D2E/DX2                !
 ! D49   D(6,15,18,21)         179.605          estimate D2E/DX2                !
 ! D50   D(16,15,18,19)        179.605          estimate D2E/DX2                !
 ! D51   D(16,15,18,20)        -60.395          estimate D2E/DX2                !
 ! D52   D(16,15,18,21)         59.605          estimate D2E/DX2                !
 ! D53   D(17,15,18,19)         59.6049         estimate D2E/DX2                !
 ! D54   D(17,15,18,20)        179.605          estimate D2E/DX2                !
 ! D55   D(17,15,18,21)        -60.3951         estimate D2E/DX2                !
 ! D56   D(15,18,21,22)        179.9252         estimate D2E/DX2                !
 ! D57   D(15,18,21,23)        -60.0748         estimate D2E/DX2                !
 ! D58   D(15,18,21,24)         59.9252         estimate D2E/DX2                !
 ! D59   D(19,18,21,22)         59.9253         estimate D2E/DX2                !
 ! D60   D(19,18,21,23)        179.9253         estimate D2E/DX2                !
 ! D61   D(19,18,21,24)        -60.0748         estimate D2E/DX2                !
 ! D62   D(20,18,21,22)        -60.0748         estimate D2E/DX2                !
 ! D63   D(20,18,21,23)         59.9252         estimate D2E/DX2                !
 ! D64   D(20,18,21,24)        179.9252         estimate D2E/DX2                !
 ! D65   D(18,21,24,25)        -89.104          estimate D2E/DX2                !
 ! D66   D(18,21,24,26)         30.896          estimate D2E/DX2                !
 ! D67   D(18,21,24,27)        150.8959         estimate D2E/DX2                !
 ! D68   D(22,21,24,25)        150.896          estimate D2E/DX2                !
 ! D69   D(22,21,24,26)        -89.104          estimate D2E/DX2                !
 ! D70   D(22,21,24,27)         30.896          estimate D2E/DX2                !
 ! D71   D(23,21,24,25)         30.896          estimate D2E/DX2                !
 ! D72   D(23,21,24,26)        150.896          estimate D2E/DX2                !
 ! D73   D(23,21,24,27)        -89.1041         estimate D2E/DX2                !
 ! D74   D(21,24,27,28)         55.8331         estimate D2E/DX2                !
 ! D75   D(21,24,27,29)        175.8331         estimate D2E/DX2                !
 ! D76   D(21,24,27,30)        -64.1669         estimate D2E/DX2                !
 ! D77   D(25,24,27,28)        -64.1669         estimate D2E/DX2                !
 ! D78   D(25,24,27,29)         55.8331         estimate D2E/DX2                !
 ! D79   D(25,24,27,30)        175.8331         estimate D2E/DX2                !
 ! D80   D(26,24,27,28)        175.8331         estimate D2E/DX2                !
 ! D81   D(26,24,27,29)        -64.1669         estimate D2E/DX2                !
 ! D82   D(26,24,27,30)         55.8331         estimate D2E/DX2                !
 ! D83   D(24,27,30,31)        -43.1715         estimate D2E/DX2                !
 ! D84   D(24,27,30,32)         76.8286         estimate D2E/DX2                !
 ! D85   D(24,27,30,33)       -163.1714         estimate D2E/DX2                !
 ! D86   D(28,27,30,31)       -163.1714         estimate D2E/DX2                !
 ! D87   D(28,27,30,32)        -43.1714         estimate D2E/DX2                !
 ! D88   D(28,27,30,33)         76.8286         estimate D2E/DX2                !
 ! D89   D(29,27,30,31)         76.8285         estimate D2E/DX2                !
 ! D90   D(29,27,30,32)       -163.1715         estimate D2E/DX2                !
 ! D91   D(29,27,30,33)        -43.1715         estimate D2E/DX2                !
 ! D92   D(27,30,33,34)       -175.2594         estimate D2E/DX2                !
 ! D93   D(27,30,33,35)         64.7406         estimate D2E/DX2                !
 ! D94   D(27,30,33,36)        -55.2594         estimate D2E/DX2                !
 ! D95   D(31,30,33,34)         64.7406         estimate D2E/DX2                !
 ! D96   D(31,30,33,35)        -55.2594         estimate D2E/DX2                !
 ! D97   D(31,30,33,36)       -175.2594         estimate D2E/DX2                !
 ! D98   D(32,30,33,34)        -55.2594         estimate D2E/DX2                !
 ! D99   D(32,30,33,35)       -175.2594         estimate D2E/DX2                !
 ! D100  D(32,30,33,36)         64.7406         estimate D2E/DX2                !
 ! D101  D(30,33,36,37)         79.6249         estimate D2E/DX2                !
 ! D102  D(30,33,36,38)        -40.3751         estimate D2E/DX2                !
 ! D103  D(30,33,36,39)       -160.3751         estimate D2E/DX2                !
 ! D104  D(34,33,36,37)       -160.3751         estimate D2E/DX2                !
 ! D105  D(34,33,36,38)         79.6249         estimate D2E/DX2                !
 ! D106  D(34,33,36,39)        -40.3751         estimate D2E/DX2                !
 ! D107  D(35,33,36,37)        -40.3751         estimate D2E/DX2                !
 ! D108  D(35,33,36,38)       -160.3751         estimate D2E/DX2                !
 ! D109  D(35,33,36,39)         79.6249         estimate D2E/DX2                !
 ! D110  D(33,36,39,40)        -55.5664         estimate D2E/DX2                !
 ! D111  D(33,36,39,41)         64.4336         estimate D2E/DX2                !
 ! D112  D(33,36,39,42)       -175.5664         estimate D2E/DX2                !
 ! D113  D(37,36,39,40)         64.4336         estimate D2E/DX2                !
 ! D114  D(37,36,39,41)       -175.5664         estimate D2E/DX2                !
 ! D115  D(37,36,39,42)        -55.5664         estimate D2E/DX2                !
 ! D116  D(38,36,39,40)       -175.5664         estimate D2E/DX2                !
 ! D117  D(38,36,39,41)        -55.5664         estimate D2E/DX2                !
 ! D118  D(38,36,39,42)         64.4336         estimate D2E/DX2                !
 ! D119  D(36,39,42,43)         60.374          estimate D2E/DX2                !
 ! D120  D(36,39,42,44)        -59.6259         estimate D2E/DX2                !
 ! D121  D(36,39,42,45)       -176.9565         estimate D2E/DX2                !
 ! D122  D(40,39,42,43)        -59.6259         estimate D2E/DX2                !
 ! D123  D(40,39,42,44)       -179.6259         estimate D2E/DX2                !
 ! D124  D(40,39,42,45)         63.0435         estimate D2E/DX2                !
 ! D125  D(41,39,42,43)       -179.626          estimate D2E/DX2                !
 ! D126  D(41,39,42,44)         60.3741         estimate D2E/DX2                !
 ! D127  D(41,39,42,45)        -56.9565         estimate D2E/DX2                !
 ! D128  D(13,46,49,50)         84.3486         estimate D2E/DX2                !
 ! D129  D(13,46,49,51)       -155.6514         estimate D2E/DX2                !
 ! D130  D(13,46,49,52)        -35.6514         estimate D2E/DX2                !
 ! D131  D(47,46,49,50)        -35.6513         estimate D2E/DX2                !
 ! D132  D(47,46,49,51)         84.3487         estimate D2E/DX2                !
 ! D133  D(47,46,49,52)       -155.6513         estimate D2E/DX2                !
 ! D134  D(48,46,49,50)       -155.6514         estimate D2E/DX2                !
 ! D135  D(48,46,49,51)        -35.6514         estimate D2E/DX2                !
 ! D136  D(48,46,49,52)         84.3486         estimate D2E/DX2                !
 ! D137  D(46,49,52,53)         91.4898         estimate D2E/DX2                !
 ! D138  D(46,49,52,54)        -28.5102         estimate D2E/DX2                !
 ! D139  D(46,49,52,55)       -148.5102         estimate D2E/DX2                !
 ! D140  D(50,49,52,53)        -28.5102         estimate D2E/DX2                !
 ! D141  D(50,49,52,54)       -148.5102         estimate D2E/DX2                !
 ! D142  D(50,49,52,55)         91.4898         estimate D2E/DX2                !
 ! D143  D(51,49,52,53)       -148.5102         estimate D2E/DX2                !
 ! D144  D(51,49,52,54)         91.4898         estimate D2E/DX2                !
 ! D145  D(51,49,52,55)        -28.5102         estimate D2E/DX2                !
 ! D146  D(49,52,55,56)       -174.3677         estimate D2E/DX2                !
 ! D147  D(49,52,55,57)        -54.3677         estimate D2E/DX2                !
 ! D148  D(49,52,55,58)         65.6323         estimate D2E/DX2                !
 ! D149  D(53,52,55,56)        -54.3677         estimate D2E/DX2                !
 ! D150  D(53,52,55,57)         65.6323         estimate D2E/DX2                !
 ! D151  D(53,52,55,58)       -174.3677         estimate D2E/DX2                !
 ! D152  D(54,52,55,56)         65.6323         estimate D2E/DX2                !
 ! D153  D(54,52,55,57)       -174.3677         estimate D2E/DX2                !
 ! D154  D(54,52,55,58)        -54.3677         estimate D2E/DX2                !
 ! D155  D(52,55,58,59)        -76.1679         estimate D2E/DX2                !
 ! D156  D(52,55,58,60)         43.8321         estimate D2E/DX2                !
 ! D157  D(52,55,58,61)        163.8321         estimate D2E/DX2                !
 ! D158  D(56,55,58,59)        163.8321         estimate D2E/DX2                !
 ! D159  D(56,55,58,60)        -76.1679         estimate D2E/DX2                !
 ! D160  D(56,55,58,61)         43.8321         estimate D2E/DX2                !
 ! D161  D(57,55,58,59)         43.8321         estimate D2E/DX2                !
 ! D162  D(57,55,58,60)        163.8321         estimate D2E/DX2                !
 ! D163  D(57,55,58,61)        -76.1679         estimate D2E/DX2                !
 ! D164  D(55,58,61,62)        175.2154         estimate D2E/DX2                !
 ! D165  D(55,58,61,63)        -64.7846         estimate D2E/DX2                !
 ! D166  D(55,58,61,64)         55.2154         estimate D2E/DX2                !
 ! D167  D(59,58,61,62)         55.2155         estimate D2E/DX2                !
 ! D168  D(59,58,61,63)        175.2154         estimate D2E/DX2                !
 ! D169  D(59,58,61,64)        -64.7846         estimate D2E/DX2                !
 ! D170  D(60,58,61,62)        -64.7846         estimate D2E/DX2                !
 ! D171  D(60,58,61,63)         55.2154         estimate D2E/DX2                !
 ! D172  D(60,58,61,64)        175.2154         estimate D2E/DX2                !
 ! D173  D(58,61,64,65)        -79.7403         estimate D2E/DX2                !
 ! D174  D(58,61,64,66)         40.2597         estimate D2E/DX2                !
 ! D175  D(58,61,64,67)        160.2597         estimate D2E/DX2                !
 ! D176  D(62,61,64,65)        160.2597         estimate D2E/DX2                !
 ! D177  D(62,61,64,66)        -79.7403         estimate D2E/DX2                !
 ! D178  D(62,61,64,67)         40.2597         estimate D2E/DX2                !
 ! D179  D(63,61,64,65)         40.2597         estimate D2E/DX2                !
 ! D180  D(63,61,64,66)        160.2597         estimate D2E/DX2                !
 ! D181  D(63,61,64,67)        -79.7403         estimate D2E/DX2                !
 ! D182  D(61,64,67,68)         55.564          estimate D2E/DX2                !
 ! D183  D(61,64,67,69)        -64.436          estimate D2E/DX2                !
 ! D184  D(61,64,67,70)        175.564          estimate D2E/DX2                !
 ! D185  D(65,64,67,68)        -64.436          estimate D2E/DX2                !
 ! D186  D(65,64,67,69)        175.564          estimate D2E/DX2                !
 ! D187  D(65,64,67,70)         55.564          estimate D2E/DX2                !
 ! D188  D(66,64,67,68)        175.564          estimate D2E/DX2                !
 ! D189  D(66,64,67,69)         55.564          estimate D2E/DX2                !
 ! D190  D(66,64,67,70)        -64.436          estimate D2E/DX2                !
 ! D191  D(64,67,70,71)        -60.7436         estimate D2E/DX2                !
 ! D192  D(64,67,70,72)         59.2564         estimate D2E/DX2                !
 ! D193  D(64,67,70,73)        179.2564         estimate D2E/DX2                !
 ! D194  D(68,67,70,71)         59.2564         estimate D2E/DX2                !
 ! D195  D(68,67,70,72)        179.2564         estimate D2E/DX2                !
 ! D196  D(68,67,70,73)        -60.7436         estimate D2E/DX2                !
 ! D197  D(69,67,70,71)        179.2564         estimate D2E/DX2                !
 ! D198  D(69,67,70,72)        -60.7436         estimate D2E/DX2                !
 ! D199  D(69,67,70,73)         59.2564         estimate D2E/DX2                !
 ! D200  D(67,70,73,74)         59.3754         estimate D2E/DX2                !
 ! D201  D(67,70,73,75)        179.3754         estimate D2E/DX2                !
 ! D202  D(67,70,73,76)        -80.2264         estimate D2E/DX2                !
 ! D203  D(71,70,73,74)        -60.6246         estimate D2E/DX2                !
 ! D204  D(71,70,73,75)         59.3755         estimate D2E/DX2                !
 ! D205  D(71,70,73,76)        159.7736         estimate D2E/DX2                !
 ! D206  D(72,70,73,74)        179.3754         estimate D2E/DX2                !
 ! D207  D(72,70,73,75)        -60.6246         estimate D2E/DX2                !
 ! D208  D(72,70,73,76)         39.7736         estimate D2E/DX2                !
 --------------------------------------------------------------------------------
 Trust Radius=3.00D-01 FncErr=1.00D-07 GrdErr=1.00D-06 EigMax=2.50D+02 EigMin=1.00D-04
 Number of steps in this run=    445 maximum allowed number of steps=    468.
 GradGradGradGradGradGradGradGradGradGradGradGradGradGradGradGradGradGrad

 Leave Link  103 at Mon Jan 20 17:02:07 2020, MaxMem=  6710886400 cpu:               0.1 elap:               0.0
 (Enter /apps/gaussian/g16-a03/l202.exe)
 Stoichiometry    C28H44Br2O2S2
 Framework group  C1[X(C28H44Br2O2S2)]
 Deg. of freedom   228
 Full point group                 C1      NOp   1
 Largest Abelian subgroup         C1      NOp   1
 Largest concise Abelian subgroup C1      NOp   1
                         Standard orientation:                         
 ---------------------------------------------------------------------
 Center     Atomic      Atomic             Coordinates (Angstroms)
 Number     Number       Type             X           Y           Z
 ---------------------------------------------------------------------
      1          6           0       -0.122019   -0.614410    0.226253
      2          6           0       -1.400434   -1.093817   -0.012052
      3          6           0       -1.510353   -2.512651    0.026940
      4          6           0       -0.315560   -3.113077    0.294928
      5         16           0        0.962662   -1.970374    0.504555
      6          8           0       -2.415076   -0.215310   -0.254527
      7          1           0       -2.428599   -3.057976   -0.134527
      8          6           0        0.323867    0.759046    0.257286
      9          6           0        1.602282    1.238453    0.495591
     10          6           0        1.713175    2.657188    0.456800
     11          6           0        0.517407    3.257713    0.188610
     12         16           0       -0.760907    2.116047   -0.020058
     13          8           0        2.616725    0.359988    0.739045
     14          1           0        2.630354    3.203649    0.619024
     15          6           0       -3.730510   -0.726469   -0.485282
     16          1           0       -3.719407   -1.365411   -1.343496
     17          1           0       -4.051818   -1.283478    0.369939
     18          6           0       -4.700669    0.444325   -0.729481
     19          1           0       -4.716973    1.079518    0.131428
     20          1           0       -4.375500    1.005392   -1.580579
     21          6           0       -6.115360   -0.106602   -0.987798
     22          1           0       -6.789688    0.706928   -1.156179
     23          1           0       -6.099319   -0.740759   -1.849475
     24          6           0       -6.582611   -0.915690    0.236397
     25          1           0       -6.278613   -1.935740    0.126936
     26          1           0       -6.144895   -0.506224    1.122762
     27          6           0       -8.117374   -0.845991    0.342430
     28          1           0       -8.554006   -1.187955   -0.572619
     29          1           0       -8.447714   -1.466592    1.149046
     30          6           0       -8.548273    0.609080    0.604523
     31          1           0       -7.901158    1.046469    1.335846
     32          1           0       -8.487576    1.168471   -0.305585
     33          6           0       -9.997891    0.629534    1.123935
     34          1           0      -10.325386    1.642904    1.227507
     35          1           0      -10.042938    0.141181    2.074925
     36          6           0      -10.911328   -0.105647    0.125564
     37          1           0      -10.819186   -1.161983    0.268963
     38          1           0      -10.622376    0.145189   -0.873680
     39          6           0      -12.373254    0.318491    0.358971
     40          1           0      -12.638140    0.138643    1.379946
     41          1           0      -12.481563    1.360358    0.140606
     42          6           0      -13.298058   -0.498033   -0.562781
     43          1           0      -13.194582   -1.539449   -0.339966
     44          1           0      -13.028944   -0.323231   -1.583527
     45          1           0      -14.306595   -0.597801   -0.837368
     46          6           0        3.422907    1.170596   -0.119957
     47          1           0        2.862610    1.431424   -0.993419
     48          1           0        3.711563    2.061385    0.397802
     49          6           0        4.682064    0.386094   -0.533089
     50          1           0        4.455241   -0.235160   -1.374217
     51          1           0        5.459655    1.072475   -0.796021
     52          6           0        5.148527   -0.492144    0.642798
     53          1           0        4.696794   -1.459137    0.566883
     54          1           0        4.859512   -0.034949    1.566022
     55          6           0        6.681111   -0.636655    0.599192
     56          1           0        6.996141   -1.324774    1.355597
     57          1           0        6.977676   -1.002435   -0.361617
     58          6           0        7.333457    0.735662    0.849777
     59          1           0        7.255730    1.334189   -0.033752
     60          1           0        6.832760    1.226312    1.658148
     61          6           0        8.818300    0.540375    1.208531
     62          1           0        9.291540    1.495583    1.300845
     63          1           0        8.894670    0.013320    2.136583
     64          6           0        9.512114   -0.271131    0.098720
     65          1           0        9.292201   -1.310487    0.226308
     66          1           0        9.156210    0.054095   -0.856507
     67          6           0       11.034675   -0.054826    0.180093
     68          1           0       11.378862   -0.307337    1.161252
     69          1           0       11.260619    0.970911   -0.024146
     70          6           0       11.736671   -0.951387   -0.856719
     71          1           0       11.521264   -1.977821   -0.644742
     72          1           0       11.382907   -0.707726   -1.836709
     73          6           0       13.257848   -0.721341   -0.788165
     74          1           0       13.609898   -0.954604    0.194968
     75          1           0       13.746461   -1.352229   -1.501002
     76          1           0       13.522507    0.149931   -1.310985
     77         35           0        0.177411    4.995677   -0.499782
     78         35           0        0.178425   -4.813488   -0.393972
 ---------------------------------------------------------------------
 Rotational constants (GHZ):           0.1031138           0.0219976           0.0184153
 Leave Link  202 at Mon Jan 20 17:02:07 2020, MaxMem=  6710886400 cpu:               0.1 elap:               0.0
 (Enter /apps/gaussian/g16-a03/l301.exe)
 Standard basis: 6-311G(d,p) (5D, 7F)
 Ernie: Thresh=  0.10000D-02 Tol=  0.10000D-05 Strict=F.
 There are   982 symmetry adapted cartesian basis functions of A   symmetry.
 There are   944 symmetry adapted basis functions of A   symmetry.
   944 basis functions,  1584 primitive gaussians,   982 cartesian basis functions
   165 alpha electrons      165 beta electrons
       nuclear repulsion energy      4823.1410774084 Hartrees.
 IExCor=  402 DFT=T Ex+Corr=B3LYP ExCW=0 ScaHFX=  0.200000
 ScaDFX=  0.800000  0.720000  1.000000  0.810000 ScalE2=  1.000000  1.000000
 IRadAn=      5 IRanWt=     -1 IRanGd=            0 ICorTp=0 IEmpDi=  4
 NAtoms=   78 NActive=   78 NUniq=   78 SFac= 1.00D+00 NAtFMM=   60 NAOKFM=T Big=T
 Integral buffers will be    131072 words long.
 Raffenetti 2 integral format.
 Two-electron integral symmetry is turned on.
 Leave Link  301 at Mon Jan 20 17:02:07 2020, MaxMem=  6710886400 cpu:               0.5 elap:               0.1
 (Enter /apps/gaussian/g16-a03/l302.exe)
 NPDir=0 NMtPBC=     1 NCelOv=     1 NCel=       1 NClECP=     1 NCelD=      1
         NCelK=      1 NCelE2=     1 NClLst=     1 CellRange=     0.0.
 One-electron integrals computed using PRISM.
 One-electron integral symmetry used in STVInt
 NBasis=   944 RedAO= T EigKep=  2.89D-04  NBF=   944
 NBsUse=   944 1.00D-06 EigRej= -1.00D+00 NBFU=   944
 Precomputing XC quadrature grid using
 IXCGrd= 4 IRadAn=           5 IRanWt=          -1 IRanGd=           0 AccXCQ= 0.00D+00.
 Generated NRdTot=       0 NPtTot=           0 NUsed=           0 NTot=          32
 NSgBfM=   719   719   719   719   719 MxSgAt=    78 MxSgA2=    78.
 Leave Link  302 at Mon Jan 20 17:02:10 2020, MaxMem=  6710886400 cpu:              22.5 elap:               2.8
 (Enter /apps/gaussian/g16-a03/l303.exe)
 DipDrv:  MaxL=1.
 Leave Link  303 at Mon Jan 20 17:02:10 2020, MaxMem=  6710886400 cpu:               1.5 elap:               0.2
 (Enter /apps/gaussian/g16-a03/l401.exe)
 ExpMin= 7.71D-02 ExpMax= 4.40D+05 ExpMxC= 1.51D+04 IAcc=3 IRadAn=         5 AccDes= 0.00D+00
 Harris functional with IExCor=  402 and IRadAn=       5 diagonalized for initial guess.
 HarFok:  IExCor=  402 AccDes= 0.00D+00 IRadAn=         5 IDoV= 1 UseB2=F ITyADJ=14
 ICtDFT=  3500011 ScaDFX=  1.000000  1.000000  1.000000  1.000000
 FoFCou: FMM=F IPFlag=           0 FMFlag=      100000 FMFlg1=        2001
         NFxFlg=           0 DoJE=T BraDBF=F KetDBF=T FulRan=T
         wScrn=  0.000000 ICntrl=       500 IOpCl=  0 I1Cent=   200000004 NGrid=           0
         NMat0=    1 NMatS0=      1 NMatT0=    0 NMatD0=    1 NMtDS0=    0 NMtDT0=    0
 Petite list used in FoFCou.
 Harris En= -7189.13008240947    
 JPrj=0 DoOrth=F DoCkMO=F.
 Leave Link  401 at Mon Jan 20 17:02:23 2020, MaxMem=  6710886400 cpu:              99.0 elap:              12.4
 (Enter /apps/gaussian/g16-a03/l502.exe)
 Integral symmetry usage will be decided dynamically.
 Closed shell SCF:
 Using DIIS extrapolation, IDIIS=  1040.
 NGot=  6710886400 LenX=  6708940084 LenY=  6707974778
 Requested convergence on RMS density matrix=1.00D-08 within 128 cycles.
 Requested convergence on MAX density matrix=1.00D-06.
 Requested convergence on             energy=1.00D-06.
 No special actions if energy rises.
 Fock matrices will be formed incrementally for  20 cycles.
 Integral accuracy reduced to 1.0D-05 until final iterations.

 Cycle   1  Pass 0  IDiag  1:
 FoFJK:  IHMeth= 1 ICntrl=       0 DoSepK=F KAlg= 0 I1Cent=           0 FoldK=F
 IRaf= 530000000 NMat=       1 IRICut=       1 DoRegI=T DoRafI=F ISym2E= 0 IDoP0=0 IntGTp=1.
 FoFCou: FMM=T IPFlag=           0 FMFlag=      100000 FMFlg1=        2001
         NFxFlg=           0 DoJE=F BraDBF=F KetDBF=F FulRan=T
         wScrn=  0.000000 ICntrl=         0 IOpCl=  0 I1Cent=           0 NGrid=           0
         NMat0=    1 NMatS0=      1 NMatT0=    0 NMatD0=    1 NMtDS0=    0 NMtDT0=    0
 Symmetry not used in FoFCou.
 FMM levels:  10  Number of levels for PrismC:   9
 E= -7187.52221680487    
 DIIS: error= 5.93D-02 at cycle   1 NSaved=   1.
 NSaved= 1 IEnMin= 1 EnMin= -7187.52221680487     IErMin= 1 ErrMin= 5.93D-02
 ErrMax= 5.93D-02  0.00D+00 EMaxC= 1.00D-01 BMatC= 3.61D+00 BMatP= 3.61D+00
 IDIUse=3 WtCom= 4.07D-01 WtEn= 5.93D-01
 Coeff-Com:  0.100D+01
 Coeff-En:   0.100D+01
 Coeff:      0.100D+01
 Gap=     0.087 Goal=   None    Shift=    0.000
 GapD=    0.087 DampG=0.500 DampE=0.500 DampFc=0.2500 IDamp=-1.
 Damping current iteration by 2.50D-01
 RMSDP=2.30D-03 MaxDP=1.40D-01              OVMax= 2.69D-01

 Cycle   2  Pass 0  IDiag  1:
 RMSU=  5.75D-04    CP:  9.96D-01
 E= -7187.98696607643     Delta-E=       -0.464749271558 Rises=F Damp=T
 DIIS: error= 4.11D-02 at cycle   2 NSaved=   2.
 NSaved= 2 IEnMin= 2 EnMin= -7187.98696607643     IErMin= 2 ErrMin= 4.11D-02
 ErrMax= 4.11D-02  0.00D+00 EMaxC= 1.00D-01 BMatC= 1.43D+00 BMatP= 3.61D+00
 IDIUse=3 WtCom= 5.89D-01 WtEn= 4.11D-01
 Coeff-Com: -0.130D+01 0.230D+01
 Coeff-En:   0.000D+00 0.100D+01
 Coeff:     -0.764D+00 0.176D+01
 Gap=     0.247 Goal=   None    Shift=    0.000
 RMSDP=6.58D-04 MaxDP=4.70D-02 DE=-4.65D-01 OVMax= 2.52D-01

 Cycle   3  Pass 0  IDiag  1:
 RMSU=  6.30D-04    CP:  9.96D-01  1.33D+00
 E= -7188.75376161642     Delta-E=       -0.766795539988 Rises=F Damp=F
 DIIS: error= 4.68D-03 at cycle   3 NSaved=   3.
 NSaved= 3 IEnMin= 3 EnMin= -7188.75376161642     IErMin= 3 ErrMin= 4.68D-03
 ErrMax= 4.68D-03  0.00D+00 EMaxC= 1.00D-01 BMatC= 3.55D-02 BMatP= 1.43D+00
 IDIUse=3 WtCom= 9.53D-01 WtEn= 4.68D-02
 Coeff-Com: -0.227D+00 0.398D+00 0.828D+00
 Coeff-En:   0.000D+00 0.000D+00 0.100D+01
 Coeff:     -0.216D+00 0.380D+00 0.836D+00
 Gap=     0.127 Goal=   None    Shift=    0.000
 RMSDP=5.15D-04 MaxDP=5.09D-02 DE=-7.67D-01 OVMax= 1.38D-01

 Cycle   4  Pass 0  IDiag  1:
 RMSU=  2.90D-04    CP:  9.95D-01  1.65D+00  3.90D-01
 E= -7188.74543565850     Delta-E=        0.008325957917 Rises=F Damp=F
 DIIS: error= 5.24D-03 at cycle   4 NSaved=   4.
 NSaved= 4 IEnMin= 3 EnMin= -7188.75376161642     IErMin= 3 ErrMin= 4.68D-03
 ErrMax= 5.24D-03  0.00D+00 EMaxC= 1.00D-01 BMatC= 4.06D-02 BMatP= 3.55D-02
 IDIUse=3 WtCom= 1.21D-01 WtEn= 8.79D-01
 Coeff-Com: -0.645D-01 0.117D+00 0.523D+00 0.424D+00
 Coeff-En:   0.000D+00 0.000D+00 0.544D+00 0.456D+00
 Coeff:     -0.782D-02 0.142D-01 0.542D+00 0.452D+00
 Gap=     0.130 Goal=   None    Shift=    0.000
 RMSDP=2.49D-04 MaxDP=2.17D-02 DE= 8.33D-03 OVMax= 5.76D-02

 Cycle   5  Pass 0  IDiag  1:
 RMSU=  9.23D-05    CP:  9.94D-01  1.56D+00  6.49D-01  4.64D-01
 E= -7188.78603016981     Delta-E=       -0.040594511311 Rises=F Damp=F
 DIIS: error= 7.86D-04 at cycle   5 NSaved=   5.
 NSaved= 5 IEnMin= 5 EnMin= -7188.78603016981     IErMin= 5 ErrMin= 7.86D-04
 ErrMax= 7.86D-04  0.00D+00 EMaxC= 1.00D-01 BMatC= 2.39D-03 BMatP= 3.55D-02
 IDIUse=3 WtCom= 9.92D-01 WtEn= 7.86D-03
 Coeff-Com:  0.521D-02 0.214D-02 0.256D+00 0.235D+00 0.502D+00
 Coeff-En:   0.000D+00 0.000D+00 0.000D+00 0.000D+00 0.100D+01
 Coeff:      0.517D-02 0.212D-02 0.254D+00 0.233D+00 0.506D+00
 Gap=     0.130 Goal=   None    Shift=    0.000
 RMSDP=6.62D-05 MaxDP=6.87D-03 DE=-4.06D-02 OVMax= 1.55D-02

 Cycle   6  Pass 0  IDiag  1:
 RMSU=  3.15D-05    CP:  9.95D-01  1.51D+00  6.79D-01  4.93D-01  5.00D-01
 E= -7188.78809277529     Delta-E=       -0.002062605479 Rises=F Damp=F
 DIIS: error= 4.48D-04 at cycle   6 NSaved=   6.
 NSaved= 6 IEnMin= 6 EnMin= -7188.78809277529     IErMin= 6 ErrMin= 4.48D-04
 ErrMax= 4.48D-04  0.00D+00 EMaxC= 1.00D-01 BMatC= 2.61D-04 BMatP= 2.39D-03
 IDIUse=3 WtCom= 9.96D-01 WtEn= 4.48D-03
 Coeff-Com:  0.811D-02-0.743D-02 0.120D+00 0.114D+00 0.319D+00 0.446D+00
 Coeff-En:   0.000D+00 0.000D+00 0.000D+00 0.000D+00 0.198D-01 0.980D+00
 Coeff:      0.807D-02-0.740D-02 0.120D+00 0.113D+00 0.318D+00 0.448D+00
 Gap=     0.131 Goal=   None    Shift=    0.000
 RMSDP=2.37D-05 MaxDP=1.81D-03 DE=-2.06D-03 OVMax= 8.26D-03

 Cycle   7  Pass 0  IDiag  1:
 RMSU=  9.27D-06    CP:  9.95D-01  1.50D+00  6.77D-01  4.93D-01  6.08D-01
                    CP:  3.87D-01
 E= -7188.78834353735     Delta-E=       -0.000250762061 Rises=F Damp=F
 DIIS: error= 1.51D-04 at cycle   7 NSaved=   7.
 NSaved= 7 IEnMin= 7 EnMin= -7188.78834353735     IErMin= 7 ErrMin= 1.51D-04
 ErrMax= 1.51D-04  0.00D+00 EMaxC= 1.00D-01 BMatC= 2.55D-05 BMatP= 2.61D-04
 IDIUse=3 WtCom= 9.98D-01 WtEn= 1.51D-03
 Coeff-Com:  0.395D-02-0.463D-02 0.291D-01 0.281D-01 0.102D+00 0.266D+00
 Coeff-Com:  0.575D+00
 Coeff-En:   0.000D+00 0.000D+00 0.000D+00 0.000D+00 0.000D+00 0.791D-01
 Coeff-En:   0.921D+00
 Coeff:      0.394D-02-0.462D-02 0.290D-01 0.281D-01 0.102D+00 0.266D+00
 Coeff:      0.575D+00
 Gap=     0.130 Goal=   None    Shift=    0.000
 RMSDP=8.43D-06 MaxDP=6.72D-04 DE=-2.51D-04 OVMax= 3.19D-03

 Initial convergence to 1.0D-05 achieved.  Increase integral accuracy.
 Cycle   8  Pass 1  IDiag  1:
 E= -7188.78845806069     Delta-E=       -0.000114523335 Rises=F Damp=F
 DIIS: error= 1.16D-04 at cycle   1 NSaved=   1.
 NSaved= 1 IEnMin= 1 EnMin= -7188.78845806069     IErMin= 1 ErrMin= 1.16D-04
 ErrMax= 1.16D-04  0.00D+00 EMaxC= 1.00D-01 BMatC= 1.16D-05 BMatP= 1.16D-05
 IDIUse=3 WtCom= 9.99D-01 WtEn= 1.16D-03
 Coeff-Com:  0.100D+01
 Coeff-En:   0.100D+01
 Coeff:      0.100D+01
 Gap=     0.131 Goal=   None    Shift=    0.000
 RMSDP=8.43D-06 MaxDP=6.72D-04 DE=-1.15D-04 OVMax= 3.63D-03

 Cycle   9  Pass 1  IDiag  1:
 RMSU=  4.52D-05    CP:  1.00D+00
 E= -7188.78843464102     Delta-E=        0.000023419661 Rises=F Damp=F
 DIIS: error= 1.55D-04 at cycle   2 NSaved=   2.
 NSaved= 2 IEnMin= 1 EnMin= -7188.78845806069     IErMin= 1 ErrMin= 1.16D-04
 ErrMax= 1.55D-04  0.00D+00 EMaxC= 1.00D-01 BMatC= 3.43D-05 BMatP= 1.16D-05
 IDIUse=3 WtCom= 4.45D-01 WtEn= 5.55D-01
 Coeff-Com:  0.650D+00 0.350D+00
 Coeff-En:   0.729D+00 0.271D+00
 Coeff:      0.694D+00 0.306D+00
 Gap=     0.131 Goal=   None    Shift=    0.000
 RMSDP=7.27D-06 MaxDP=5.54D-04 DE= 2.34D-05 OVMax= 2.80D-03

 Cycle  10  Pass 1  IDiag  1:
 RMSU=  7.14D-06    CP:  1.00D+00  9.70D-01
 E= -7188.78846993728     Delta-E=       -0.000035296251 Rises=F Damp=F
 DIIS: error= 1.77D-05 at cycle   3 NSaved=   3.
 NSaved= 3 IEnMin= 3 EnMin= -7188.78846993728     IErMin= 3 ErrMin= 1.77D-05
 ErrMax= 1.77D-05  0.00D+00 EMaxC= 1.00D-01 BMatC= 5.38D-07 BMatP= 1.16D-05
 IDIUse=1 WtCom= 1.00D+00 WtEn= 0.00D+00
 Coeff-Com:  0.142D+00 0.969D-01 0.761D+00
 Coeff:      0.142D+00 0.969D-01 0.761D+00
 Gap=     0.131 Goal=   None    Shift=    0.000
 RMSDP=1.64D-06 MaxDP=1.78D-04 DE=-3.53D-05 OVMax= 4.58D-04

 Cycle  11  Pass 1  IDiag  1:
 RMSU=  1.53D-06    CP:  1.00D+00  9.78D-01  9.34D-01
 E= -7188.78846977018     Delta-E=        0.000000167092 Rises=F Damp=F
 DIIS: error= 2.22D-05 at cycle   4 NSaved=   4.
 NSaved= 4 IEnMin= 3 EnMin= -7188.78846993728     IErMin= 3 ErrMin= 1.77D-05
 ErrMax= 2.22D-05  0.00D+00 EMaxC= 1.00D-01 BMatC= 7.44D-07 BMatP= 5.38D-07
 IDIUse=1 WtCom= 1.00D+00 WtEn= 0.00D+00
 Coeff-Com:  0.251D-03 0.148D-01 0.542D+00 0.443D+00
 Coeff:      0.251D-03 0.148D-01 0.542D+00 0.443D+00
 Gap=     0.131 Goal=   None    Shift=    0.000
 RMSDP=9.19D-07 MaxDP=9.93D-05 DE= 1.67D-07 OVMax= 2.27D-04

 Cycle  12  Pass 1  IDiag  1:
 RMSU=  2.01D-07    CP:  1.00D+00  9.80D-01  9.63D-01  4.32D-01
 E= -7188.78847045338     Delta-E=       -0.000000683202 Rises=F Damp=F
 DIIS: error= 2.98D-06 at cycle   5 NSaved=   5.
 NSaved= 5 IEnMin= 5 EnMin= -7188.78847045338     IErMin= 5 ErrMin= 2.98D-06
 ErrMax= 2.98D-06  0.00D+00 EMaxC= 1.00D-01 BMatC= 1.34D-08 BMatP= 5.38D-07
 IDIUse=1 WtCom= 1.00D+00 WtEn= 0.00D+00
 Coeff-Com: -0.253D-02 0.713D-02 0.318D+00 0.271D+00 0.407D+00
 Coeff:     -0.253D-02 0.713D-02 0.318D+00 0.271D+00 0.407D+00
 Gap=     0.131 Goal=   None    Shift=    0.000
 RMSDP=1.27D-07 MaxDP=1.15D-05 DE=-6.83D-07 OVMax= 3.86D-05

 Cycle  13  Pass 1  IDiag  1:
 RMSU=  7.86D-08    CP:  1.00D+00  9.80D-01  9.63D-01  4.50D-01  5.22D-01
 E= -7188.78847046540     Delta-E=       -0.000000012016 Rises=F Damp=F
 DIIS: error= 6.19D-07 at cycle   6 NSaved=   6.
 NSaved= 6 IEnMin= 6 EnMin= -7188.78847046540     IErMin= 6 ErrMin= 6.19D-07
 ErrMax= 6.19D-07  0.00D+00 EMaxC= 1.00D-01 BMatC= 5.36D-10 BMatP= 1.34D-08
 IDIUse=1 WtCom= 1.00D+00 WtEn= 0.00D+00
 Coeff-Com: -0.149D-02 0.334D-02 0.160D+00 0.137D+00 0.240D+00 0.462D+00
 Coeff:     -0.149D-02 0.334D-02 0.160D+00 0.137D+00 0.240D+00 0.462D+00
 Gap=     0.131 Goal=   None    Shift=    0.000
 RMSDP=3.72D-08 MaxDP=3.48D-06 DE=-1.20D-08 OVMax= 1.25D-05

 Cycle  14  Pass 1  IDiag  1:
 RMSU=  2.50D-08    CP:  1.00D+00  9.80D-01  9.63D-01  4.49D-01  5.89D-01
                    CP:  6.97D-01
 E= -7188.78847046588     Delta-E=       -0.000000000477 Rises=F Damp=F
 DIIS: error= 1.79D-07 at cycle   7 NSaved=   7.
 NSaved= 7 IEnMin= 7 EnMin= -7188.78847046588     IErMin= 7 ErrMin= 1.79D-07
 ErrMax= 1.79D-07  0.00D+00 EMaxC= 1.00D-01 BMatC= 6.13D-11 BMatP= 5.36D-10
 IDIUse=1 WtCom= 1.00D+00 WtEn= 0.00D+00
 Coeff-Com: -0.522D-03 0.909D-03 0.499D-01 0.424D-01 0.835D-01 0.277D+00
 Coeff-Com:  0.547D+00
 Coeff:     -0.522D-03 0.909D-03 0.499D-01 0.424D-01 0.835D-01 0.277D+00
 Coeff:      0.547D+00
 Gap=     0.131 Goal=   None    Shift=    0.000
 RMSDP=1.21D-08 MaxDP=9.97D-07 DE=-4.77D-10 OVMax= 4.74D-06

 Cycle  15  Pass 1  IDiag  1:
 RMSU=  8.82D-09    CP:  1.00D+00  9.80D-01  9.64D-01  4.49D-01  5.76D-01
                    CP:  7.60D-01  7.60D-01
 E= -7188.78847046602     Delta-E=       -0.000000000138 Rises=F Damp=F
 DIIS: error= 7.68D-08 at cycle   8 NSaved=   8.
 NSaved= 8 IEnMin= 8 EnMin= -7188.78847046602     IErMin= 8 ErrMin= 7.68D-08
 ErrMax= 7.68D-08  0.00D+00 EMaxC= 1.00D-01 BMatC= 9.66D-12 BMatP= 6.13D-11
 IDIUse=1 WtCom= 1.00D+00 WtEn= 0.00D+00
 Coeff-Com: -0.149D-03 0.136D-03 0.117D-01 0.975D-02 0.231D-01 0.119D+00
 Coeff-Com:  0.344D+00 0.492D+00
 Coeff:     -0.149D-03 0.136D-03 0.117D-01 0.975D-02 0.231D-01 0.119D+00
 Coeff:      0.344D+00 0.492D+00
 Gap=     0.131 Goal=   None    Shift=    0.000
 RMSDP=4.84D-09 MaxDP=4.23D-07 DE=-1.38D-10 OVMax= 1.41D-06

 SCF Done:  E(RB3LYP) =  -7188.78847047     A.U. after   15 cycles
            NFock= 15  Conv=0.48D-08     -V/T= 2.0015
 KE= 7.178038351229D+03 PE=-2.673548035337D+04 EE= 7.545512454263D+03
 Leave Link  502 at Mon Jan 20 17:09:29 2020, MaxMem=  6710886400 cpu:            3401.4 elap:             426.2
 (Enter /apps/gaussian/g16-a03/l601.exe)
 Copying SCF densities to generalized density rwf, IOpCl= 0 IROHF=0.

 **********************************************************************

            Population analysis using the SCF density.

 **********************************************************************

 Orbital symmetries:
       Occupied  (A) (A) (A) (A) (A) (A) (A) (A) (A) (A) (A) (A)
                 (A) (A) (A) (A) (A) (A) (A) (A) (A) (A) (A) (A)
                 (A) (A) (A) (A) (A) (A) (A) (A) (A) (A) (A) (A)
                 (A) (A) (A) (A) (A) (A) (A) (A) (A) (A) (A) (A)
                 (A) (A) (A) (A) (A) (A) (A) (A) (A) (A) (A) (A)
                 (A) (A) (A) (A) (A) (A) (A) (A) (A) (A) (A) (A)
                 (A) (A) (A) (A) (A) (A) (A) (A) (A) (A) (A) (A)
                 (A) (A) (A) (A) (A) (A) (A) (A) (A) (A) (A) (A)
                 (A) (A) (A) (A) (A) (A) (A) (A) (A) (A) (A) (A)
                 (A) (A) (A) (A) (A) (A) (A) (A) (A) (A) (A) (A)
                 (A) (A) (A) (A) (A) (A) (A) (A) (A) (A) (A) (A)
                 (A) (A) (A) (A) (A) (A) (A) (A) (A) (A) (A) (A)
                 (A) (A) (A) (A) (A) (A) (A) (A) (A) (A) (A) (A)
                 (A) (A) (A) (A) (A) (A) (A) (A) (A)
       Virtual   (A) (A) (A) (A) (A) (A) (A) (A) (A) (A) (A) (A)
                 (A) (A) (A) (A) (A) (A) (A) (A) (A) (A) (A) (A)
                 (A) (A) (A) (A) (A) (A) (A) (A) (A) (A) (A) (A)
                 (A) (A) (A) (A) (A) (A) (A) (A) (A) (A) (A) (A)
                 (A) (A) (A) (A) (A) (A) (A) (A) (A) (A) (A) (A)
                 (A) (A) (A) (A) (A) (A) (A) (A) (A) (A) (A) (A)
                 (A) (A) (A) (A) (A) (A) (A) (A) (A) (A) (A) (A)
                 (A) (A) (A) (A) (A) (A) (A) (A) (A) (A) (A) (A)
                 (A) (A) (A) (A) (A) (A) (A) (A) (A) (A) (A) (A)
                 (A) (A) (A) (A) (A) (A) (A) (A) (A) (A) (A) (A)
                 (A) (A) (A) (A) (A) (A) (A) (A) (A) (A) (A) (A)
                 (A) (A) (A) (A) (A) (A) (A) (A) (A) (A) (A) (A)
                 (A) (A) (A) (A) (A) (A) (A) (A) (A) (A) (A) (A)
                 (A) (A) (A) (A) (A) (A) (A) (A) (A) (A) (A) (A)
                 (A) (A) (A) (A) (A) (A) (A) (A) (A) (A) (A) (A)
                 (A) (A) (A) (A) (A) (A) (A) (A) (A) (A) (A) (A)
                 (A) (A) (A) (A) (A) (A) (A) (A) (A) (A) (A) (A)
                 (A) (A) (A) (A) (A) (A) (A) (A) (A) (A) (A) (A)
                 (A) (A) (A) (A) (A) (A) (A) (A) (A) (A) (A) (A)
                 (A) (A) (A) (A) (A) (A) (A) (A) (A) (A) (A) (A)
                 (A) (A) (A) (A) (A) (A) (A) (A) (A) (A) (A) (A)
                 (A) (A) (A) (A) (A) (A) (A) (A) (A) (A) (A) (A)
                 (A) (A) (A) (A) (A) (A) (A) (A) (A) (A) (A) (A)
                 (A) (A) (A) (A) (A) (A) (A) (A) (A) (A) (A) (A)
                 (A) (A) (A) (A) (A) (A) (A) (A) (A) (A) (A) (A)
                 (A) (A) (A) (A) (A) (A) (A) (A) (A) (A) (A) (A)
                 (A) (A) (A) (A) (A) (A) (A) (A) (A) (A) (A) (A)
                 (A) (A) (A) (A) (A) (A) (A) (A) (A) (A) (A) (A)
                 (A) (A) (A) (A) (A) (A) (A) (A) (A) (A) (A) (A)
                 (A) (A) (A) (A) (A) (A) (A) (A) (A) (A) (A) (A)
                 (A) (A) (A) (A) (A) (A) (A) (A) (A) (A) (A) (A)
                 (A) (A) (A) (A) (A) (A) (A) (A) (A) (A) (A) (A)
                 (A) (A) (A) (A) (A) (A) (A) (A) (A) (A) (A) (A)
                 (A) (A) (A) (A) (A) (A) (A) (A) (A) (A) (A) (A)
                 (A) (A) (A) (A) (A) (A) (A) (A) (A) (A) (A) (A)
                 (A) (A) (A) (A) (A) (A) (A) (A) (A) (A) (A) (A)
                 (A) (A) (A) (A) (A) (A) (A) (A) (A) (A) (A) (A)
                 (A) (A) (A) (A) (A) (A) (A) (A) (A) (A) (A) (A)
                 (A) (A) (A) (A) (A) (A) (A) (A) (A) (A) (A) (A)
                 (A) (A) (A) (A) (A) (A) (A) (A) (A) (A) (A) (A)
                 (A) (A) (A) (A) (A) (A) (A) (A) (A) (A) (A) (A)
                 (A) (A) (A) (A) (A) (A) (A) (A) (A) (A) (A) (A)
                 (A) (A) (A) (A) (A) (A) (A) (A) (A) (A) (A) (A)
                 (A) (A) (A) (A) (A) (A) (A) (A) (A) (A) (A) (A)
                 (A) (A) (A) (A) (A) (A) (A) (A) (A) (A) (A) (A)
                 (A) (A) (A) (A) (A) (A) (A) (A) (A) (A) (A) (A)
                 (A) (A) (A) (A) (A) (A) (A) (A) (A) (A) (A) (A)
                 (A) (A) (A) (A) (A) (A) (A) (A) (A) (A) (A) (A)
                 (A) (A) (A) (A) (A) (A) (A) (A) (A) (A) (A) (A)
                 (A) (A) (A) (A) (A) (A) (A) (A) (A) (A) (A) (A)
                 (A) (A) (A) (A) (A) (A) (A) (A) (A) (A) (A) (A)
                 (A) (A) (A) (A) (A) (A) (A) (A) (A) (A) (A) (A)
                 (A) (A) (A) (A) (A) (A) (A) (A) (A) (A) (A) (A)
                 (A) (A) (A) (A) (A) (A) (A) (A) (A) (A) (A) (A)
                 (A) (A) (A) (A) (A) (A) (A) (A) (A) (A) (A) (A)
[...]
 Alpha virt. eigenvalues --   17.48735  17.52930  23.37327  23.54971  23.68477
 Alpha virt. eigenvalues --   23.78828  23.79627  23.79988  23.84633  23.85182
 Alpha virt. eigenvalues --   23.85194  23.85649  23.85897  23.86130  23.86361
 Alpha virt. eigenvalues --   23.86643  23.87881  23.88447  23.89028  23.89136
 Alpha virt. eigenvalues --   23.90470  23.91113  23.92124  23.92438  23.93840
 Alpha virt. eigenvalues --   23.93897  24.02573  24.02874  24.12022  24.12279
 Alpha virt. eigenvalues --   47.77197  47.78046  49.92831  49.93681 188.90732
 Alpha virt. eigenvalues --  188.91566 289.65407 289.65449 289.70277 289.70779
 Alpha virt. eigenvalues --  289.83311 289.851841020.521511020.53207
          Condensed to atoms (all electrons):
 Mulliken charges:
               1
     1  C   -0.248004
     2  C    0.251535
     3  C   -0.034765
     4  C   -0.370697
     5  S    0.396994
     6  O   -0.382156
     7  H    0.119024
     8  C   -0.240996
     9  C    0.250537
    10  C   -0.035149
    11  C   -0.361837
    12  S    0.383530
    13  O   -0.384963
    14  H    0.119497
    15  C   -0.015204
    16  H    0.110258
    17  H    0.117272
    18  C   -0.223813
    19  H    0.122480
    20  H    0.127376
    21  C   -0.224396
    22  H    0.118334
    23  H    0.104644
    24  C   -0.211168
    25  H    0.103570
    26  H    0.106430
    27  C   -0.206806
    28  H    0.106927
    29  H    0.105472
    30  C   -0.207692
    31  H    0.104485
    32  H    0.105413
    33  C   -0.205915
    34  H    0.104006
    35  H    0.101488
    36  C   -0.205117
    37  H    0.104913
    38  H    0.099869
    39  C   -0.221609
    40  H    0.103683
    41  H    0.103494
    42  C   -0.289568
    43  H    0.101032
    44  H    0.101516
    45  H    0.106325
    46  C   -0.029018
    47  H    0.120421
    48  H    0.111781
    49  C   -0.220990
    50  H    0.122506
    51  H    0.111351
    52  C   -0.214139
    53  H    0.136515
    54  H    0.097872
    55  C   -0.212536
    56  H    0.106928
    57  H    0.111919
    58  C   -0.209034
    59  H    0.102891
    60  H    0.102851
    61  C   -0.206425
    62  H    0.103039
    63  H    0.102225
    64  C   -0.202301
    65  H    0.107002
    66  H    0.099015
    67  C   -0.201942
    68  H    0.100714
    69  H    0.099493
    70  C   -0.222209
    71  H    0.103996
    72  H    0.102954
    73  C   -0.289771
    74  H    0.101444
    75  H    0.105794
    76  H    0.101021
    77  Br   0.023419
    78  Br   0.022964
 Sum of Mulliken charges =  -0.00000
 Mulliken charges with hydrogens summed into heavy atoms:
               1
     1  C   -0.248004
     2  C    0.251535
     3  C    0.084260
     4  C   -0.370697
     5  S    0.396994
     6  O   -0.382156
     8  C   -0.240996
     9  C    0.250537
    10  C    0.084348
    11  C   -0.361837
    12  S    0.383530
    13  O   -0.384963
    15  C    0.212326
    18  C    0.026043
    21  C   -0.001418
    24  C   -0.001169
    27  C    0.005594
    30  C    0.002206
    33  C   -0.000420
    36  C   -0.000335
    39  C   -0.014432
    42  C    0.019304
    46  C    0.203184
    49  C    0.012868
    52  C    0.020249
    55  C    0.006310
    58  C   -0.003292
    61  C   -0.001161
    64  C    0.003716
    67  C   -0.001735
    70  C   -0.015259
    73  C    0.018488
    77  Br   0.023419
    78  Br   0.022964
 Electronic spatial extent (au):  <R**2>=          55367.3821
 Charge=              0.0000 electrons
 Dipole moment (field-independent basis, Debye):
    X=             -0.4248    Y=             -0.2019    Z=              0.2019  Tot=              0.5119
 Quadrupole moment (field-independent basis, Debye-Ang):
   XX=           -226.2049   YY=           -254.0457   ZZ=           -257.0758
   XY=             13.2771   XZ=             -1.2372   YZ=             -0.7013
 Traceless Quadrupole moment (field-independent basis, Debye-Ang):
   XX=             19.5706   YY=             -8.2702   ZZ=            -11.3004
   XY=             13.2771   XZ=             -1.2372   YZ=             -0.7013
 Octapole moment (field-independent basis, Debye-Ang**2):
  XXX=            -28.0245  YYY=             77.0336  ZZZ=            -16.3194  XYY=             27.7799
  XXY=             74.7648  XXZ=             -8.2823  XZZ=              6.7309  YZZ=             22.5065
  YYZ=             -3.9274  XYZ=              1.6327
 Hexadecapole moment (field-independent basis, Debye-Ang**3):
 XXXX=         -61031.9677 YYYY=         -12041.9238 ZZZZ=          -1047.0032 XXXY=             37.3455
 XXXZ=           -205.7131 YYYX=           -206.6840 YYYZ=            -15.6525 ZZZX=            -16.1366
 ZZZY=            -12.0144 XXYY=         -12237.2849 XXZZ=         -10451.9082 YYZZ=          -2255.4016
 XXYZ=            -82.7344 YYXZ=            -34.0956 ZZXY=           -104.7092
 N-N= 4.761821212180D+03 E-N=-2.661164003308D+04  KE= 7.176041923721D+03
 No NMR shielding tensors so no spin-rotation constants.
 Leave Link  601 at Mon Jan 20 21:26:50 2020, MaxMem=  6710886400 cpu:               7.2 elap:               1.0
 (Enter /apps/gaussian/g16-a03/l602.exe)
 FitSet:  NAtFit=    78 NAtPot=    78 NAtFrz=     0 MDM=    82 TotChg=   0.00000
 UFF atomic radii scaled by 1 / 1.20 used.

 **********************************************************************

            Electrostatic Properties Using The SCF Density

 **********************************************************************

       Atomic Center    1 is at   0.144027  0.325391 -0.264878
       Atomic Center    2 is at  -1.035774 -0.401218 -0.272297
       Atomic Center    3 is at  -0.858348 -1.814901 -0.298472
       Atomic Center    4 is at   0.463252 -2.150285 -0.311679
       Atomic Center    5 is at   1.519893 -0.777933 -0.294131
       Atomic Center    6 is at  -2.226567  0.256456 -0.262701
       Atomic Center    7 is at  -1.657687 -2.539493 -0.307755
       Atomic Center    8 is at   0.303840  1.757576 -0.248605
       Atomic Center    9 is at   1.483108  2.485123 -0.223747
       Atomic Center   10 is at   1.303546  3.898767 -0.225610
       Atomic Center   11 is at  -0.018478  4.232269 -0.247875
       Atomic Center   12 is at  -1.073688  2.859378 -0.267412
       Atomic Center   13 is at   2.675177  1.829867 -0.199063
       Atomic Center   14 is at   2.101329  4.624876 -0.210413
       Atomic Center   15 is at  -3.434269 -0.514860 -0.212608
       Atomic Center   16 is at  -3.494114 -1.158200 -1.099960
       Atomic Center   17 is at  -3.415903 -1.152672  0.677775
       Atomic Center   18 is at  -4.602331  0.459151 -0.181392
       Atomic Center   19 is at  -4.516900  1.082393  0.714978
       Atomic Center   20 is at  -4.501681  1.128962 -1.040671
       Atomic Center   21 is at  -5.978470 -0.223945 -0.220295
       Atomic Center   22 is at  -6.732904  0.555665 -0.360085
       Atomic Center   23 is at  -6.042774 -0.867646 -1.107593
       Atomic Center   24 is at  -6.322422 -1.048500  1.029551
       Atomic Center   25 is at  -5.578833 -1.842217  1.162113
       Atomic Center   26 is at  -6.242066 -0.406177  1.916339
       Atomic Center   27 is at  -7.716115 -1.697344  0.998679
       Atomic Center   28 is at  -7.797476 -2.321584  0.101115
       Atomic Center   29 is at  -7.799807 -2.381368  1.852161
       Atomic Center   30 is at  -8.885395 -0.703389  1.056772
       Atomic Center   31 is at  -8.729126 -0.032686  1.910875
       Atomic Center   32 is at  -8.883270 -0.065531  0.165096
       Atomic Center   33 is at -10.269276 -1.358056  1.193856
       Atomic Center   34 is at -11.010808 -0.571631  1.379558
       Atomic Center   35 is at -10.278390 -1.998652  2.085485
       Atomic Center   36 is at -10.719069 -2.177399 -0.022647
       Atomic Center   37 is at -10.021432 -3.004932 -0.197030
       Atomic Center   38 is at -10.672393 -1.545309 -0.919571
       Atomic Center   39 is at -12.136047 -2.745782  0.119178
       Atomic Center   40 is at -12.184602 -3.371265  1.018850
       Atomic Center   41 is at -12.839933 -1.921215  0.285230
       Atomic Center   42 is at -12.585733 -3.563591 -1.094844
       Atomic Center   43 is at -11.922358 -4.417516 -1.264613
       Atomic Center   44 is at -12.580250 -2.955852 -2.005155
       Atomic Center   45 is at -13.599012 -3.952487 -0.962057
       Atomic Center   46 is at   3.882325  2.604504 -0.246084
       Atomic Center   47 is at   3.897144  3.190317 -1.172676
       Atomic Center   48 is at   3.902943  3.297608  0.604592
       Atomic Center   49 is at   5.066706  1.653316 -0.190297
       Atomic Center   50 is at   4.987365  0.949421 -1.026348
       Atomic Center   51 is at   5.967860  2.250535 -0.366397
       Atomic Center   52 is at   5.180791  0.885425  1.133180
       Atomic Center   53 is at   4.232541  0.375041  1.321693
       Atomic Center   54 is at   5.315310  1.602305  1.954163
       Atomic Center   55 is at   6.318771 -0.146069  1.167563
       Atomic Center   56 is at   6.228100 -0.731337  2.090657
       Atomic Center   57 is at   6.177430 -0.855779  0.344314
       Atomic Center   58 is at   7.730104  0.456255  1.108204
       Atomic Center   59 is at   7.876983  0.978949  0.155181
       Atomic Center   60 is at   7.815182  1.220871  1.890714
       Atomic Center   61 is at   8.865563 -0.563266  1.292446
       Atomic Center   62 is at   9.812708 -0.018946  1.390299
       Atomic Center   63 is at   8.722302 -1.094203  2.242647
       Atomic Center   64 is at   9.003057 -1.585584  0.156672
       Atomic Center   65 is at   8.084664 -2.177873  0.072838
       Atomic Center   66 is at   9.109083 -1.050756 -0.796596
       Atomic Center   67 is at  10.192380 -2.536089  0.336606
       Atomic Center   68 is at  10.090686 -3.066333  1.292535
       Atomic Center   69 is at  11.117299 -1.949488  0.412959
       Atomic Center   70 is at  10.337735 -3.560884 -0.794115
       Atomic Center   71 is at   9.414488 -4.148119 -0.869052
       Atomic Center   72 is at  10.438520 -3.031480 -1.749407
       Atomic Center   73 is at  11.528530 -4.505384 -0.606846
       Atomic Center   74 is at  11.438849 -5.075088  0.323442
       Atomic Center   75 is at  11.603602 -5.222536 -1.428869
       Atomic Center   76 is at  12.470859 -3.950185 -0.563654
       Atomic Center   77 is at  -0.729266  5.984407 -0.253361
       Atomic Center   78 is at   1.172589 -3.902678 -0.341537
    3168 points will be used for fitting atomic charges
 Fitting point charges to electrostatic potential
 Charges from ESP fit, RMS=   0.00199 RRMS=   0.26029:
 ESP charges:
               1
     1  C   -0.173775
     2  C    0.391064
     3  C   -0.256727
     4  C   -0.134753
     5  S    0.077945
     6  O   -0.365503
     7  H    0.150895
     8  C   -0.117954
     9  C    0.291719
    10  C   -0.232115
    11  C   -0.117757
    12  S    0.064654
    13  O   -0.207433
    14  H    0.148592
    15  C    0.257419
    16  H    0.023064
    17  H    0.022729
    18  C   -0.147002
    19  H    0.064716
    20  H    0.062426
    21  C   -0.060053
    22  H    0.047690
    23  H    0.033051
    24  C   -0.143053
    25  H    0.040047
    26  H    0.059614
    27  C   -0.087407
    28  H    0.041781
    29  H    0.049728
    30  C    0.052792
    31  H    0.019022
    32  H    0.015154
    33  C   -0.222571
    34  H    0.047239
    35  H    0.050372
    36  C    0.048769
    37  H   -0.003322
    38  H    0.007350
    39  C    0.162685
    40  H   -0.022274
    41  H   -0.018973
    42  C   -0.334473
    43  H    0.074791
    44  H    0.070685
    45  H    0.082522
    46  C   -0.008205
    47  H    0.070354
    48  H    0.074618
    49  C   -0.038405
    50  H    0.041234
    51  H    0.026477
    52  C   -0.057328
    53  H    0.013870
    54  H    0.035296
    55  C   -0.053243
    56  H    0.038559
    57  H    0.040632
    58  C   -0.034348
    59  H    0.027778
    60  H    0.019363
    61  C   -0.070743
    62  H    0.020391
    63  H    0.023548
    64  C   -0.004850
    65  H   -0.001379
    66  H    0.007537
    67  C   -0.050332
    68  H    0.012976
    69  H    0.016327
    70  C    0.198398
    71  H   -0.027483
    72  H   -0.036056
    73  C   -0.301012
    74  H    0.064725
    75  H    0.069785
    76  H    0.063846
    77  Br  -0.001134
    78  Br   0.005433
 Sum of ESP charges =   0.00000
 ESP charges with hydrogens summed into heavy atoms:
               1
     1  C   -0.173775
     2  C    0.391064
     3  C   -0.105832
     4  C   -0.134753
     5  S    0.077945
     6  O   -0.365503
     8  C   -0.117954
     9  C    0.291719
    10  C   -0.083523
    11  C   -0.117757
    12  S    0.064654
    13  O   -0.207433
    15  C    0.303212
    18  C   -0.019859
    21  C    0.020688
    24  C   -0.043392
    27  C    0.004103
    30  C    0.086968
    33  C   -0.124961
    36  C    0.052797
    39  C    0.121438
    42  C   -0.106474
    46  C    0.136767
    49  C    0.029306
    52  C   -0.008161
    55  C    0.025949
    58  C    0.012793
    61  C   -0.026804
    64  C    0.001307
    67  C   -0.021030
    70  C    0.134859
    73  C   -0.102656
    77  Br  -0.001134
    78  Br   0.005433
 Charge=   0.00000 Dipole=    -0.3725    -0.1798     0.2155 Tot=     0.4664
 -----------------------------------------------------------------

              Electrostatic Properties (Atomic Units)

 -----------------------------------------------------------------
    Center     Electric         -------- Electric Field --------
               Potential          X             Y             Z
 -----------------------------------------------------------------
    1 Atom    -14.737057
    2 Atom    -14.707131
    3 Atom    -14.763205
    4 Atom    -14.703190
    5 Atom    -59.212069
    6 Atom    -22.333797
    7 Atom     -1.080798
    8 Atom    -14.737365
    9 Atom    -14.707306
   10 Atom    -14.763863
   11 Atom    -14.703985
   12 Atom    -59.212786
   13 Atom    -22.334002
   14 Atom     -1.081446
   15 Atom    -14.711092
   16 Atom     -1.106959
   17 Atom     -1.107062
   18 Atom    -14.769753
   19 Atom     -1.122434
   20 Atom     -1.122677
   21 Atom    -14.770575
   22 Atom     -1.125711
   23 Atom     -1.123992
   24 Atom    -14.774369
   25 Atom     -1.127512
   26 Atom     -1.128007
   27 Atom    -14.777837
   28 Atom     -1.131014
   29 Atom     -1.131327
   30 Atom    -14.779588
   31 Atom     -1.132903
   32 Atom     -1.132653
   33 Atom    -14.780702
   34 Atom     -1.134651
   35 Atom     -1.134143
   36 Atom    -14.782432
   37 Atom     -1.134811
   38 Atom     -1.134316
   39 Atom    -14.780138
   40 Atom     -1.135541
   41 Atom     -1.135757
   42 Atom    -14.788000
   43 Atom     -1.130464
   44 Atom     -1.130536
   45 Atom     -1.129951
   46 Atom    -14.710564
   47 Atom     -1.107035
   48 Atom     -1.106420
   49 Atom    -14.770329
   50 Atom     -1.121680
   51 Atom     -1.116287
   52 Atom    -14.779763
   53 Atom     -1.136296
   54 Atom     -1.131688
   55 Atom    -14.781715
   56 Atom     -1.135258
   57 Atom     -1.135101
   58 Atom    -14.781653
   59 Atom     -1.134358
   60 Atom     -1.134813
   61 Atom    -14.782763
   62 Atom     -1.136716
   63 Atom     -1.136329
   64 Atom    -14.784524
   65 Atom     -1.137337
   66 Atom     -1.136563
   67 Atom    -14.784802
   68 Atom     -1.137281
   69 Atom     -1.137411
   70 Atom    -14.782489
   71 Atom     -1.137965
   72 Atom     -1.137898
   73 Atom    -14.790087
   74 Atom     -1.132635
   75 Atom     -1.132006
   76 Atom     -1.132593
   77 Atom   -175.807913
   78 Atom   -175.807251
 -----------------------------------------------------------------
 Leave Link  602 at Mon Jan 20 21:26:51 2020, MaxMem=  6710886400 cpu:               4.8 elap:               0.6
 (Enter /apps/gaussian/g16-a03/l9999.exe)
 1\1\GINC-CX1-141-15-1\FOpt\RB3LYP\6-311G(d,p)\C28H44Br2O2S2\NS5018\20-
 Jan-2020\0\\#p opt pop=MKUFF b3lyp/6-311g(d,p)\\OBT_1m_14sc_Sn_opt.gjf
 \\0,1\C,0.4305502353,-0.478065393,-1.4567697156\C,1.5299241223,0.35178
 16734,-1.3061847762\C,1.2625139308,1.7329908778,-1.5329438007\C,-0.045
 8304859,1.9398453448,-1.8565605265\S,-0.9816391078,0.4828617615,-1.896
 6852157\O,2.7344631452,-0.1869872098,-0.975382177\H,1.9918114771,2.524
 9336857,-1.46214363\C,0.3728828496,-1.9102460462,-1.3067994832\C,-0.72
 96479009,-2.7392460183,-1.4402208045\C,-0.4541428368,-4.1229919553,-1.
 2402712281\C,0.862093663,-4.3314554138,-0.9512532747\S,1.7968966947,-2
 .8742691425,-0.9134188752\O,-1.9426139408,-2.1995975814,-1.7376940634\
 H,-1.1830857789,-4.9157070632,-1.3048280617\C,3.8455061091,0.695463729
 8,-0.768392625\H,4.0486249105,1.2505329015,-1.6933258602\H,3.591343877
 9,1.4137561663,0.0186153178\C,5.0456815059,-0.1566768667,-0.3843668992
 \H,4.8142789187,-0.6933456446,0.5417265309\H,5.1795004152,-0.914763477
 6,-1.1618851092\C,6.3461544695,0.6453807947,-0.2189389573\H,7.16632161
 45,-0.0699463676,-0.1087721492\H,6.5535795402,1.2012325678,-1.14294563
 95\C,6.3545649269,1.618283715,0.9700517277\H,5.5455127117,2.3478888792
 ,0.8534452112\H,6.1315140237,1.0622406192,1.890102032\C,7.672841414,2.
 3888538788,1.1508845779\H,7.9004643366,2.9260104811,0.2226786984\H,7.5
 227401668,3.1588537938,1.9176273147\C,8.8698498475,1.5197317941,1.5636
 021236\H,8.5818758873,0.9252091176,2.4395979366\H,9.1043314392,0.79934
 18765,0.7711318333\C,10.1421136588,2.3117806853,1.9049378277\H,10.8803
 472245,1.6207235171,2.3295192124\H,9.9142553182,3.0355345294,2.6984805
 905\C,10.7832508358,3.0452240854,0.7198137812\H,10.0824334498,3.782246
 5555,0.3104601438\H,10.9750516419,2.3258446313,-0.0875873613\C,12.0928
 538145,3.7553725939,1.0826212258\H,11.9027613018,4.468654787,1.8938485
 999\H,12.8013357081,3.0210500064,1.4848180387\C,12.7334635618,4.487531
 4797,-0.0999361086\H,12.0631609681,5.2543736991,-0.5008402054\H,12.966
 5381602,3.7948181677,-0.9147166252\H,13.6644708026,4.9810746265,0.1920
 341218\C,-3.0535408619,-3.0849819499,-1.9411985217\H,-2.8276212342,-3.
 7584637115,-2.7762744652\H,-3.2070503546,-3.689298982,-1.0380352743\C,
 -4.2866658676,-2.248367584,-2.2413793511\H,-4.0798560817,-1.6263995931
 ,-3.1195186223\H,-5.0843909,-2.9420474721,-2.528093361\C,-4.7362277112
 ,-1.3673117342,-1.0683918027\H,-3.8891352003,-0.7540046163,-0.74980963
 08\H,-4.9926343011,-2.0088167103,-0.2147221454\C,-5.9252508194,-0.4489
 057709,-1.3891962298\H,-6.0764925173,0.2308111041,-0.5418632163\H,-5.6
 612043538,0.1859120483,-2.2428298426\C,-7.2446453162,-1.1839824878,-1.
 6667557666\H,-7.1461696782,-1.8099517904,-2.5620217059\H,-7.4412514723
 ,-1.8719445416,-0.8347391401\C,-8.4625219787,-0.2623607965,-1.84003216
 8\H,-9.3675842256,-0.8808247891,-1.8761770995\H,-8.5645006034,0.371155
 5081,-0.9492136949\C,-8.4251874804,0.6250131298,-3.0911095857\H,-7.554
 5410142,1.2896873118,-3.0528475978\H,-8.2860028393,-0.0091652101,-3.97
 68010827\C,-9.6897184568,1.4727806948,-3.2715965222\H,-9.8333691484,2.
 1022749882,-2.3836770814\H,-10.565520132,0.8123885043,-3.319132674\C,-
 9.6613011482,2.3623714309,-4.5196689512\H,-8.7874773019,3.0233746324,-
 4.4711747425\H,-9.5169616953,1.7338572565,-5.4068819479\C,-10.92841532
 39,3.2047781347,-4.692631202\H,-11.0810622722,3.8696963521,-3.83669673
 35\H,-10.8759731912,3.8267713817,-5.5904283464\H,-11.8162853282,2.5705
 759981,-4.7796293848\Br,1.679849981,-6.0010117415,-0.6061505445\Br,-0.
 8546064697,3.6062908427,-2.2357376284\\Version=ES64L-G16RevA.03\State=
 1-A\HF=-7188.9568609\RMSD=3.423e-09\RMSF=5.053e-07\Dipole=0.1401459,0.
 1022555,0.1022895\Quadrupole=11.6576511,-4.0326668,-7.6249843,11.35689
 68,4.1567295,2.6833475\PG=C01 [X(C28H44Br2O2S2)]\\@


 In the race for quality, there is no finish line.
                               -- David T. Kearns
 Job cpu time:       1 days 11 hours 11 minutes 49.9 seconds.
 Elapsed time:       0 days  4 hours 24 minutes 34.3 seconds.
 File lengths (MBytes):  RWF=    550 Int=      0 D2E=      0 Chk=     67 Scr=      1
 Normal termination of Gaussian 16 at Mon Jan 20 21:26:51 2020.
