 Entering Gaussian System, Link 0=g16
 Input=OBT_1m_14sc_Br_opt.gjf
 Output=OBT_1m_14sc_Br_opt.log
 Initial command:
 /apps/gaussian/g16-a03/l1.exe "/tmp/pbs.966838.pbs/Gau-5419.inp" -scrdir="/tmp/pbs.966838.pbs/"
 Entering Link 1 = /apps/gaussian/g16-a03/l1.exe PID=      5420.
  
 Copyright (c) 1988,1990,1992,1993,1995,1998,2003,2009,2016,
            Gaussian, Inc.  All Rights Reserved.
  
 This is part of the Gaussian(R) 16 program.  It is based on
 the Gaussian(R) 09 system (copyright 2009, Gaussian, Inc.),
 the Gaussian(R) 03 system (copyright 2003, Gaussian, Inc.),
 the Gaussian(R) 98 system (copyright 1998, Gaussian, Inc.),
 the Gaussian(R) 94 system (copyright 1995, Gaussian, Inc.),
 the Gaussian 92(TM) system (copyright 1992, Gaussian, Inc.),
 the Gaussian 90(TM) system (copyright 1990, Gaussian, Inc.),
 the Gaussian 88(TM) system (copyright 1988, Gaussian, Inc.),
 the Gaussian 86(TM) system (copyright 1986, Carnegie Mellon
 University), and the Gaussian 82(TM) system (copyright 1983,
 Carnegie Mellon University). Gaussian is a federally registered
 trademark of Gaussian, Inc.
  
 This software contains proprietary and confidential information,
 including trade secrets, belonging to Gaussian, Inc.
  
 This software is provided under written license and may be
 used, copied, transmitted, or stored only in accord with that
 written license.
  
 The following legend is applicable only to US Government
 contracts under FAR:
  
                    RESTRICTED RIGHTS LEGEND
  
 Use, reproduction and disclosure by the US Government is
 subject to restrictions as set forth in subparagraphs (a)
 and (c) of the Commercial Computer Software - Restricted
 Rights clause in FAR 52.227-19.
  
 Gaussian, Inc.
 340 Quinnipiac St., Bldg. 40, Wallingford CT 06492
  
  
 ---------------------------------------------------------------
 Warning -- This program may not be used in any manner that
 competes with the business of Gaussian, Inc. or will provide
 assistance to any competitor of Gaussian, Inc.  The licensee
 of this program is prohibited from giving any competitor of
 Gaussian, Inc. access to this program.  By using this program,
 the user acknowledges that Gaussian, Inc. is engaged in the
 business of creating and licensing software in the field of
 computational chemistry and represents and warrants to the
 licensee that it is not a competitor of Gaussian, Inc. and that
 it will not use this program in any manner prohibited above.
 ---------------------------------------------------------------
  

 Cite this work as:
 Gaussian 16, Revision A.03,
 M. J. Frisch, G. W. Trucks, H. B. Schlegel, G. E. Scuseria, 
 M. A. Robb, J. R. Cheeseman, G. Scalmani, V. Barone, 
 G. A. Petersson, H. Nakatsuji, X. Li, M. Caricato, A. V. Marenich, 
 J. Bloino, B. G. Janesko, R. Gomperts, B. Mennucci, H. P. Hratchian, 
 J. V. Ortiz, A. F. Izmaylov, J. L. Sonnenberg, D. Williams-Young, 
 F. Ding, F. Lipparini, F. Egidi, J. Goings, B. Peng, A. Petrone, 
 T. Henderson, D. Ranasinghe, V. G. Zakrzewski, J. Gao, N. Rega, 
 G. Zheng, W. Liang, M. Hada, M. Ehara, K. Toyota, R. Fukuda, 
 J. Hasegawa, M. Ishida, T. Nakajima, Y. Honda, O. Kitao, H. Nakai, 
 T. Vreven, K. Throssell, J. A. Montgomery, Jr., J. E. Peralta, 
 F. Ogliaro, M. J. Bearpark, J. J. Heyd, E. N. Brothers, K. N. Kudin, 
 V. N. Staroverov, T. A. Keith, R. Kobayashi, J. Normand, 
 K. Raghavachari, A. P. Rendell, J. C. Burant, S. S. Iyengar, 
 J. Tomasi, M. Cossi, J. M. Millam, M. Klene, C. Adamo, R. Cammi, 
 J. W. Ochterski, R. L. Martin, K. Morokuma, O. Farkas, 
 J. B. Foresman, and D. J. Fox, Gaussian, Inc., Wallingford CT, 2016.
 
 ******************************************
 Gaussian 16:  ES64L-G16RevA.03 25-Dec-2016
                16-Jan-2020 
 ******************************************
 %mem=50GB
 %nprocshared=16
 Will use up to   16 processors via shared memory.
 ------------------------
 #p opt b3lyp/6-311g(d,p)
 ------------------------
 1/18=20,19=15,26=3,38=1/1,3;
 2/9=110,12=2,17=6,18=5,40=1/2;
 3/5=4,6=6,7=101,11=2,25=1,30=1,71=1,74=-5/1,2,3;
 4//1;
 5/5=2,38=5/2;
 6/7=2,8=2,9=2,10=2,28=1/1;
 7//1,2,3,16;
 1/18=20,19=15,26=3/3(2);
 2/9=110/2;
 99//99;
 2/9=110/2;
 3/5=4,6=6,7=101,11=2,25=1,30=1,71=1,74=-5/1,2,3;
 4/5=5,16=3,69=1/1;
 5/5=2,38=5/2;
 7//1,2,3,16;
 1/18=20,19=15,26=3/3(-5);
 2/9=110/2;
 6/7=2,8=2,9=2,10=2,19=2,28=1/1;
 99/9=1/99;
 Leave Link    1 at Thu Jan 16 14:16:17 2020, MaxMem=  6710886400 cpu:               0.8 elap:               0.1
 (Enter /apps/gaussian/g16-a03/l101.exe)
 ----------------------
 OBT_1m_14sc_Sn_opt.gjf
 ----------------------
 Symbolic Z-matrix:
 Charge =  0 Multiplicity = 1
 C                    -0.06094   1.27102   0.17553 
 C                     1.18506   1.87802   0.17553 
 C                     1.14306   3.30102   0.17553 
 C                    -0.13494   3.77702   0.17553 
 S                    -1.30894   2.51002   0.17553 
 O                     2.31006   1.10702   0.17653 
 H                     2.01606   3.93702   0.17653 
 C                    -0.36494  -0.14098   0.17553 
 C                    -1.61094  -0.74798   0.17553 
 C                    -1.56994  -2.17098   0.17553 
 C                    -0.29094  -2.64698   0.17553 
 S                     0.88306  -1.38098   0.17653 
 O                    -2.73594   0.02302   0.17553 
 H                    -2.44194  -2.80798   0.17553 
 C                     3.58744   1.74967   0.18992 
 H                     3.68613   2.36528  -0.67967 
 H                     3.67257   2.35582   1.06756 
 C                     4.69854   0.68335   0.19277 
 H                     4.60401   0.07207   1.06587 
 H                     4.60923   0.07285  -0.68143 
 C                     6.07425   1.37546   0.19718 
 H                     6.84624   0.63458   0.20047 
 H                     6.16929   1.98572  -0.67658 
 C                     6.20206   2.25559   1.45441 
 H                     5.82639   3.23509   1.24379 
 H                     5.63753   1.82114   2.25283 
 C                     7.68304   2.35127   1.86567 
 H                     8.25901   2.71788   1.0418 
 H                     7.78044   3.02055   2.69481 
 C                     8.19488   0.95603   2.26932 
 H                     7.46037   0.4683    2.87555 
 H                     8.37499   0.37396   1.38974 
 C                     9.50462   1.1005    3.06638 
 H                     9.9037    0.13001   3.27561 
 H                     9.30808   1.61116   3.98589 
 C                     10.52284   1.90678   2.23889 
 H                     10.29898   2.95023   2.31637 
 H                     10.46781   1.60536   1.2137 
 C                     11.94245   1.64511   2.77541 
 H                     11.97671   1.87388   3.8201 
 H                     12.19574   0.61615   2.62712 
 C                     12.94819   2.5351    2.02176 
 H                     12.69876   3.56422   2.17539 
 H                     12.90926   2.31091   0.97624 
 C                     14.36896   2.26662   2.55179 
 H                     14.62138   1.23931   2.39109 
 H                     14.40587   2.48337   3.59895 
 C                     15.37332   3.16473   1.80597 
 H                     15.1217   4.19206   1.96776 
 H                     15.33546   2.94892   0.75864 
 C                     16.79433   2.89486   2.33465 
 H                     17.49175   3.52131   1.81882 
 H                     16.83132   3.10743   3.38267 
 C                     17.15835   1.41743   2.09736 
 H                     16.76994   0.82158   2.89674 
 H                     16.73535   1.09029   1.17057 
 H                     18.22267   1.31391   2.05992 
 C                    -3.26751  -0.88672  -0.79128 
 H                    -2.51943  -1.10535  -1.5244 
 H                    -3.56453  -1.79177  -0.30389 
 C                    -4.48916  -0.24915  -1.47879 
 H                    -4.16034   0.37446  -2.2837 
 H                    -5.12547  -1.01957  -1.8615 
 C                    -5.26828   0.59971  -0.45702 
 H                    -4.90907   1.60729  -0.48263 
 H                    -5.12738   0.19564   0.52367 
 C                    -6.76718   0.57998  -0.80988 
 H                    -7.29521   1.24689  -0.16079 
 H                    -6.89876   0.89157  -1.82501 
 C                    -7.31675  -0.84806  -0.6359 
 H                    -7.00322  -1.45379  -1.46033 
 H                    -6.94309  -1.26542   0.27575 
 C                    -8.85534  -0.80363  -0.58743 
 H                    -9.23999  -1.80142  -0.55053 
 H                    -9.16941  -0.26785   0.28389 
 C                    -9.3883   -0.09423  -1.84612 
 H                    -9.30322   0.96508  -1.7215 
 H                    -8.81647  -0.40031  -2.69714 
 C                    -10.86673  -0.46892  -2.05935 
 H                    -11.42514  -0.23333  -1.17755 
 H                    -10.94358  -1.51697  -2.2608 
 C                    -11.43086   0.32573  -3.25178 
 H                    -11.3659   1.37353  -3.04488 
 H                    -10.86423   0.09998  -4.13092 
 C                    -12.90398  -0.06274  -3.47671 
 H                    -13.46853   0.15292  -2.59372 
 H                    -13.29909   0.49736  -4.29834 
 C                    -12.99591  -1.56774  -3.78995 
 H                    -12.16048  -1.85843  -4.392 
 H                    -12.98723  -2.12353  -2.87566 
 C                    -14.30273  -1.85446  -4.55259 
 H                    -14.28016  -1.35573  -5.49898 
 H                    -15.13449  -1.49826  -3.98146 
 C                    -14.44491  -3.37165  -4.77514 
 H                    -14.45358  -3.87162  -3.82918 
 H                    -13.6203  -3.72546  -5.35801 
 C                    -15.76143  -3.66002  -5.52027 
 H                    -15.75387  -3.15789  -6.4651 
 H                    -15.85893  -4.71395  -5.67725 
 H                    -16.5862  -3.30861  -4.93618 
 Br                    0.3522   -4.35347  -0.35762 
 Br                   -0.64658   5.40032  -0.66895 
 
 ITRead=  0  0  0  0  0  0  0  0  0  0  0  0  0  0  0  0  0  0  0  0
 ITRead=  0  0  0  0  0  0  0  0  0  0  0  0  0  0  0  0  0  0  0  0
 ITRead=  0  0  0  0  0  0  0  0  0  0  0  0  0  0  0  0  0  0  0  0
 ITRead=  0  0  0  0  0  0  0  0  0  0  0  0  0  0  0  0  0  0  0  0
 ITRead=  0  0  0  0  0  0  0  0  0  0  0  0  0  0  0  0  0  0  0  0
 ITRead=  0  0
 MicOpt= -1 -1 -1 -1 -1 -1 -1 -1 -1 -1 -1 -1 -1 -1 -1 -1 -1 -1 -1 -1
 MicOpt= -1 -1 -1 -1 -1 -1 -1 -1 -1 -1 -1 -1 -1 -1 -1 -1 -1 -1 -1 -1
 MicOpt= -1 -1 -1 -1 -1 -1 -1 -1 -1 -1 -1 -1 -1 -1 -1 -1 -1 -1 -1 -1
 MicOpt= -1 -1 -1 -1 -1 -1 -1 -1 -1 -1 -1 -1 -1 -1 -1 -1 -1 -1 -1 -1
 MicOpt= -1 -1 -1 -1 -1 -1 -1 -1 -1 -1 -1 -1 -1 -1 -1 -1 -1 -1 -1 -1
 MicOpt= -1 -1
 NAtoms=    102 NQM=      102 NQMF=       0 NMMI=      0 NMMIF=      0
                NMic=       0 NMicF=      0.
                    Isotopes and Nuclear Properties:
 (Nuclear quadrupole moments (NQMom) in fm**2, nuclear magnetic moments (NMagM)
  in nuclear magnetons)

  Atom         1           2           3           4           5           6           7           8           9          10
 IAtWgt=          12          12          12          12          32          16           1          12          12          12
 AtmWgt=  12.0000000  12.0000000  12.0000000  12.0000000  31.9720718  15.9949146   1.0078250  12.0000000  12.0000000  12.0000000
 NucSpn=           0           0           0           0           0           0           1           0           0           0
 AtZEff=  -0.0000000  -0.0000000  -0.0000000  -0.0000000  -0.0000000  -0.0000000  -0.0000000  -0.0000000  -0.0000000  -0.0000000
 NQMom=    0.0000000   0.0000000   0.0000000   0.0000000   0.0000000   0.0000000   0.0000000   0.0000000   0.0000000   0.0000000
 NMagM=    0.0000000   0.0000000   0.0000000   0.0000000   0.0000000   0.0000000   2.7928460   0.0000000   0.0000000   0.0000000
 AtZNuc=   6.0000000   6.0000000   6.0000000   6.0000000  16.0000000   8.0000000   1.0000000   6.0000000   6.0000000   6.0000000

  Atom        11          12          13          14          15          16          17          18          19          20
 IAtWgt=          12          32          16           1          12           1           1          12           1           1
 AtmWgt=  12.0000000  31.9720718  15.9949146   1.0078250  12.0000000   1.0078250   1.0078250  12.0000000   1.0078250   1.0078250
 NucSpn=           0           0           0           1           0           1           1           0           1           1
 AtZEff=  -0.0000000  -0.0000000  -0.0000000  -0.0000000  -0.0000000  -0.0000000  -0.0000000  -0.0000000  -0.0000000  -0.0000000
 NQMom=    0.0000000   0.0000000   0.0000000   0.0000000   0.0000000   0.0000000   0.0000000   0.0000000   0.0000000   0.0000000
 NMagM=    0.0000000   0.0000000   0.0000000   2.7928460   0.0000000   2.7928460   2.7928460   0.0000000   2.7928460   2.7928460
 AtZNuc=   6.0000000  16.0000000   8.0000000   1.0000000   6.0000000   1.0000000   1.0000000   6.0000000   1.0000000   1.0000000

  Atom        21          22          23          24          25          26          27          28          29          30
 IAtWgt=          12           1           1          12           1           1          12           1           1          12
 AtmWgt=  12.0000000   1.0078250   1.0078250  12.0000000   1.0078250   1.0078250  12.0000000   1.0078250   1.0078250  12.0000000
 NucSpn=           0           1           1           0           1           1           0           1           1           0
 AtZEff=  -0.0000000  -0.0000000  -0.0000000  -0.0000000  -0.0000000  -0.0000000  -0.0000000  -0.0000000  -0.0000000  -0.0000000
 NQMom=    0.0000000   0.0000000   0.0000000   0.0000000   0.0000000   0.0000000   0.0000000   0.0000000   0.0000000   0.0000000
 NMagM=    0.0000000   2.7928460   2.7928460   0.0000000   2.7928460   2.7928460   0.0000000   2.7928460   2.7928460   0.0000000
 AtZNuc=   6.0000000   1.0000000   1.0000000   6.0000000   1.0000000   1.0000000   6.0000000   1.0000000   1.0000000   6.0000000

  Atom        31          32          33          34          35          36          37          38          39          40
 IAtWgt=           1           1          12           1           1          12           1           1          12           1
 AtmWgt=   1.0078250   1.0078250  12.0000000   1.0078250   1.0078250  12.0000000   1.0078250   1.0078250  12.0000000   1.0078250
 NucSpn=           1           1           0           1           1           0           1           1           0           1
 AtZEff=  -0.0000000  -0.0000000  -0.0000000  -0.0000000  -0.0000000  -0.0000000  -0.0000000  -0.0000000  -0.0000000  -0.0000000
 NQMom=    0.0000000   0.0000000   0.0000000   0.0000000   0.0000000   0.0000000   0.0000000   0.0000000   0.0000000   0.0000000
 NMagM=    2.7928460   2.7928460   0.0000000   2.7928460   2.7928460   0.0000000   2.7928460   2.7928460   0.0000000   2.7928460
 AtZNuc=   1.0000000   1.0000000   6.0000000   1.0000000   1.0000000   6.0000000   1.0000000   1.0000000   6.0000000   1.0000000

  Atom        41          42          43          44          45          46          47          48          49          50
 IAtWgt=           1          12           1           1          12           1           1          12           1           1
 AtmWgt=   1.0078250  12.0000000   1.0078250   1.0078250  12.0000000   1.0078250   1.0078250  12.0000000   1.0078250   1.0078250
 NucSpn=           1           0           1           1           0           1           1           0           1           1
 AtZEff=  -0.0000000  -0.0000000  -0.0000000  -0.0000000  -0.0000000  -0.0000000  -0.0000000  -0.0000000  -0.0000000  -0.0000000
 NQMom=    0.0000000   0.0000000   0.0000000   0.0000000   0.0000000   0.0000000   0.0000000   0.0000000   0.0000000   0.0000000
 NMagM=    2.7928460   0.0000000   2.7928460   2.7928460   0.0000000   2.7928460   2.7928460   0.0000000   2.7928460   2.7928460
 AtZNuc=   1.0000000   6.0000000   1.0000000   1.0000000   6.0000000   1.0000000   1.0000000   6.0000000   1.0000000   1.0000000

  Atom        51          52          53          54          55          56          57          58          59          60
 IAtWgt=          12           1           1          12           1           1           1          12           1           1
 AtmWgt=  12.0000000   1.0078250   1.0078250  12.0000000   1.0078250   1.0078250   1.0078250  12.0000000   1.0078250   1.0078250
 NucSpn=           0           1           1           0           1           1           1           0           1           1
 AtZEff=  -0.0000000  -0.0000000  -0.0000000  -0.0000000  -0.0000000  -0.0000000  -0.0000000  -0.0000000  -0.0000000  -0.0000000
 NQMom=    0.0000000   0.0000000   0.0000000   0.0000000   0.0000000   0.0000000   0.0000000   0.0000000   0.0000000   0.0000000
 NMagM=    0.0000000   2.7928460   2.7928460   0.0000000   2.7928460   2.7928460   2.7928460   0.0000000   2.7928460   2.7928460
 AtZNuc=   6.0000000   1.0000000   1.0000000   6.0000000   1.0000000   1.0000000   1.0000000   6.0000000   1.0000000   1.0000000

  Atom        61          62          63          64          65          66          67          68          69          70
 IAtWgt=          12           1           1          12           1           1          12           1           1          12
 AtmWgt=  12.0000000   1.0078250   1.0078250  12.0000000   1.0078250   1.0078250  12.0000000   1.0078250   1.0078250  12.0000000
 NucSpn=           0           1           1           0           1           1           0           1           1           0
 AtZEff=  -0.0000000  -0.0000000  -0.0000000  -0.0000000  -0.0000000  -0.0000000  -0.0000000  -0.0000000  -0.0000000  -0.0000000
 NQMom=    0.0000000   0.0000000   0.0000000   0.0000000   0.0000000   0.0000000   0.0000000   0.0000000   0.0000000   0.0000000
 NMagM=    0.0000000   2.7928460   2.7928460   0.0000000   2.7928460   2.7928460   0.0000000   2.7928460   2.7928460   0.0000000
 AtZNuc=   6.0000000   1.0000000   1.0000000   6.0000000   1.0000000   1.0000000   6.0000000   1.0000000   1.0000000   6.0000000

  Atom        71          72          73          74          75          76          77          78          79          80
 IAtWgt=           1           1          12           1           1          12           1           1          12           1
 AtmWgt=   1.0078250   1.0078250  12.0000000   1.0078250   1.0078250  12.0000000   1.0078250   1.0078250  12.0000000   1.0078250
 NucSpn=           1           1           0           1           1           0           1           1           0           1
 AtZEff=  -0.0000000  -0.0000000  -0.0000000  -0.0000000  -0.0000000  -0.0000000  -0.0000000  -0.0000000  -0.0000000  -0.0000000
 NQMom=    0.0000000   0.0000000   0.0000000   0.0000000   0.0000000   0.0000000   0.0000000   0.0000000   0.0000000   0.0000000
 NMagM=    2.7928460   2.7928460   0.0000000   2.7928460   2.7928460   0.0000000   2.7928460   2.7928460   0.0000000   2.7928460
 AtZNuc=   1.0000000   1.0000000   6.0000000   1.0000000   1.0000000   6.0000000   1.0000000   1.0000000   6.0000000   1.0000000

  Atom        81          82          83          84          85          86          87          88          89          90
 IAtWgt=           1          12           1           1          12           1           1          12           1           1
 AtmWgt=   1.0078250  12.0000000   1.0078250   1.0078250  12.0000000   1.0078250   1.0078250  12.0000000   1.0078250   1.0078250
 NucSpn=           1           0           1           1           0           1           1           0           1           1
 AtZEff=  -0.0000000  -0.0000000  -0.0000000  -0.0000000  -0.0000000  -0.0000000  -0.0000000  -0.0000000  -0.0000000  -0.0000000
 NQMom=    0.0000000   0.0000000   0.0000000   0.0000000   0.0000000   0.0000000   0.0000000   0.0000000   0.0000000   0.0000000
 NMagM=    2.7928460   0.0000000   2.7928460   2.7928460   0.0000000   2.7928460   2.7928460   0.0000000   2.7928460   2.7928460
 AtZNuc=   1.0000000   6.0000000   1.0000000   1.0000000   6.0000000   1.0000000   1.0000000   6.0000000   1.0000000   1.0000000

  Atom        91          92          93          94          95          96          97          98          99         100
 IAtWgt=          12           1           1          12           1           1          12           1           1           1
 AtmWgt=  12.0000000   1.0078250   1.0078250  12.0000000   1.0078250   1.0078250  12.0000000   1.0078250   1.0078250   1.0078250
 NucSpn=           0           1           1           0           1           1           0           1           1           1
 AtZEff=  -0.0000000  -0.0000000  -0.0000000  -0.0000000  -0.0000000  -0.0000000  -0.0000000  -0.0000000  -0.0000000  -0.0000000
 NQMom=    0.0000000   0.0000000   0.0000000   0.0000000   0.0000000   0.0000000   0.0000000   0.0000000   0.0000000   0.0000000
 NMagM=    0.0000000   2.7928460   2.7928460   0.0000000   2.7928460   2.7928460   0.0000000   2.7928460   2.7928460   2.7928460
 AtZNuc=   6.0000000   1.0000000   1.0000000   6.0000000   1.0000000   1.0000000   6.0000000   1.0000000   1.0000000   1.0000000

  Atom       101         102
 IAtWgt=          79          79
 AtmWgt=  78.9183361  78.9183361
 NucSpn=           3           3
 AtZEff=  -0.0000000  -0.0000000
 NQMom=   31.3000000  31.3000000
 NMagM=    2.1063990   2.1063990
 AtZNuc=  35.0000000  35.0000000
 Leave Link  101 at Thu Jan 16 14:16:18 2020, MaxMem=  6710886400 cpu:               8.2 elap:               0.5
 (Enter /apps/gaussian/g16-a03/l103.exe)

 GradGradGradGradGradGradGradGradGradGradGradGradGradGradGradGradGradGrad
 Berny optimization.
 Initialization pass.
                           ----------------------------
                           !    Initial Parameters    !
                           ! (Angstroms and Degrees)  !
 --------------------------                            --------------------------
 ! Name  Definition              Value          Derivative Info.                !
 --------------------------------------------------------------------------------
 ! R1    R(1,2)                  1.386          estimate D2E/DX2                !
 ! R2    R(1,5)                  1.7586         estimate D2E/DX2                !
 ! R3    R(1,8)                  1.4444         estimate D2E/DX2                !
 ! R4    R(2,3)                  1.4236         estimate D2E/DX2                !
 ! R5    R(2,6)                  1.3638         estimate D2E/DX2                !
 ! R6    R(3,4)                  1.3638         estimate D2E/DX2                !
 ! R7    R(3,7)                  1.0801         estimate D2E/DX2                !
 ! R8    R(4,5)                  1.7273         estimate D2E/DX2                !
 ! R9    R(4,102)                1.9            estimate D2E/DX2                !
 ! R10   R(6,15)                 1.43           estimate D2E/DX2                !
 ! R11   R(8,9)                  1.386          estimate D2E/DX2                !
 ! R12   R(8,12)                 1.7593         estimate D2E/DX2                !
 ! R13   R(9,10)                 1.4236         estimate D2E/DX2                !
 ! R14   R(9,13)                 1.3638         estimate D2E/DX2                !
 ! R15   R(10,11)                1.3647         estimate D2E/DX2                !
 ! R16   R(10,14)                1.0799         estimate D2E/DX2                !
 ! R17   R(11,12)                1.7266         estimate D2E/DX2                !
 ! R18   R(11,101)               1.9            estimate D2E/DX2                !
 ! R19   R(13,58)                1.43           estimate D2E/DX2                !
 ! R20   R(15,16)                1.07           estimate D2E/DX2                !
 ! R21   R(15,17)                1.07           estimate D2E/DX2                !
 ! R22   R(15,18)                1.54           estimate D2E/DX2                !
 ! R23   R(18,19)                1.07           estimate D2E/DX2                !
 ! R24   R(18,20)                1.07           estimate D2E/DX2                !
 ! R25   R(18,21)                1.54           estimate D2E/DX2                !
 ! R26   R(21,22)                1.07           estimate D2E/DX2                !
 ! R27   R(21,23)                1.07           estimate D2E/DX2                !
 ! R28   R(21,24)                1.54           estimate D2E/DX2                !
 ! R29   R(24,25)                1.07           estimate D2E/DX2                !
 ! R30   R(24,26)                1.07           estimate D2E/DX2                !
 ! R31   R(24,27)                1.54           estimate D2E/DX2                !
 ! R32   R(27,28)                1.07           estimate D2E/DX2                !
 ! R33   R(27,29)                1.07           estimate D2E/DX2                !
 ! R34   R(27,30)                1.54           estimate D2E/DX2                !
 ! R35   R(30,31)                1.07           estimate D2E/DX2                !
 ! R36   R(30,32)                1.07           estimate D2E/DX2                !
 ! R37   R(30,33)                1.54           estimate D2E/DX2                !
 ! R38   R(33,34)                1.07           estimate D2E/DX2                !
 ! R39   R(33,35)                1.07           estimate D2E/DX2                !
 ! R40   R(33,36)                1.54           estimate D2E/DX2                !
 ! R41   R(36,37)                1.07           estimate D2E/DX2                !
 ! R42   R(36,38)                1.07           estimate D2E/DX2                !
 ! R43   R(36,39)                1.54           estimate D2E/DX2                !
 ! R44   R(39,40)                1.07           estimate D2E/DX2                !
 ! R45   R(39,41)                1.07           estimate D2E/DX2                !
 ! R46   R(39,42)                1.54           estimate D2E/DX2                !
 ! R47   R(42,43)                1.07           estimate D2E/DX2                !
 ! R48   R(42,44)                1.07           estimate D2E/DX2                !
 ! R49   R(42,45)                1.54           estimate D2E/DX2                !
 ! R50   R(45,46)                1.07           estimate D2E/DX2                !
 ! R51   R(45,47)                1.07           estimate D2E/DX2                !
 ! R52   R(45,48)                1.54           estimate D2E/DX2                !
 ! R53   R(48,49)                1.07           estimate D2E/DX2                !
 ! R54   R(48,50)                1.07           estimate D2E/DX2                !
 ! R55   R(48,51)                1.54           estimate D2E/DX2                !
 ! R56   R(51,52)                1.07           estimate D2E/DX2                !
 ! R57   R(51,53)                1.07           estimate D2E/DX2                !
 ! R58   R(51,54)                1.54           estimate D2E/DX2                !
 ! R59   R(54,55)                1.07           estimate D2E/DX2                !
 ! R60   R(54,56)                1.07           estimate D2E/DX2                !
 ! R61   R(54,57)                1.07           estimate D2E/DX2                !
 ! R62   R(58,59)                1.07           estimate D2E/DX2                !
 ! R63   R(58,60)                1.07           estimate D2E/DX2                !
 ! R64   R(58,61)                1.54           estimate D2E/DX2                !
 ! R65   R(61,62)                1.07           estimate D2E/DX2                !
 ! R66   R(61,63)                1.07           estimate D2E/DX2                !
 ! R67   R(61,64)                1.54           estimate D2E/DX2                !
 ! R68   R(64,65)                1.07           estimate D2E/DX2                !
 ! R69   R(64,66)                1.07           estimate D2E/DX2                !
 ! R70   R(64,67)                1.54           estimate D2E/DX2                !
 ! R71   R(67,68)                1.07           estimate D2E/DX2                !
 ! R72   R(67,69)                1.07           estimate D2E/DX2                !
 ! R73   R(67,70)                1.54           estimate D2E/DX2                !
 ! R74   R(70,71)                1.07           estimate D2E/DX2                !
 ! R75   R(70,72)                1.07           estimate D2E/DX2                !
 ! R76   R(70,73)                1.54           estimate D2E/DX2                !
 ! R77   R(73,74)                1.07           estimate D2E/DX2                !
 ! R78   R(73,75)                1.07           estimate D2E/DX2                !
 ! R79   R(73,76)                1.54           estimate D2E/DX2                !
 ! R80   R(76,77)                1.07           estimate D2E/DX2                !
 ! R81   R(76,78)                1.07           estimate D2E/DX2                !
 ! R82   R(76,79)                1.54           estimate D2E/DX2                !
 ! R83   R(79,80)                1.07           estimate D2E/DX2                !
 ! R84   R(79,81)                1.07           estimate D2E/DX2                !
 ! R85   R(79,82)                1.54           estimate D2E/DX2                !
 ! R86   R(82,83)                1.07           estimate D2E/DX2                !
 ! R87   R(82,84)                1.07           estimate D2E/DX2                !
 ! R88   R(82,85)                1.54           estimate D2E/DX2                !
 ! R89   R(85,86)                1.07           estimate D2E/DX2                !
 ! R90   R(85,87)                1.07           estimate D2E/DX2                !
 ! R91   R(85,88)                1.54           estimate D2E/DX2                !
 ! R92   R(88,89)                1.07           estimate D2E/DX2                !
 ! R93   R(88,90)                1.07           estimate D2E/DX2                !
 ! R94   R(88,91)                1.54           estimate D2E/DX2                !
 ! R95   R(91,92)                1.07           estimate D2E/DX2                !
 ! R96   R(91,93)                1.07           estimate D2E/DX2                !
 ! R97   R(91,94)                1.54           estimate D2E/DX2                !
 ! R98   R(94,95)                1.07           estimate D2E/DX2                !
 ! R99   R(94,96)                1.07           estimate D2E/DX2                !
 ! R100  R(94,97)                1.54           estimate D2E/DX2                !
 ! R101  R(97,98)                1.07           estimate D2E/DX2                !
 ! R102  R(97,99)                1.07           estimate D2E/DX2                !
 ! R103  R(97,100)               1.07           estimate D2E/DX2                !
 ! A1    A(2,1,5)              109.2339         estimate D2E/DX2                !
 ! A2    A(2,1,8)              128.1236         estimate D2E/DX2                !
 ! A3    A(5,1,8)              122.6425         estimate D2E/DX2                !
 ! A4    A(1,2,3)              114.2828         estimate D2E/DX2                !
 ! A5    A(1,2,6)              119.6024         estimate D2E/DX2                !
 ! A6    A(3,2,6)              126.1147         estimate D2E/DX2                !
 ! A7    A(2,3,4)              112.1188         estimate D2E/DX2                !
 ! A8    A(2,3,7)              124.3836         estimate D2E/DX2                !
 ! A9    A(4,3,7)              123.4976         estimate D2E/DX2                !
 ! A10   A(3,4,5)              112.3899         estimate D2E/DX2                !
 ! A11   A(3,4,102)            123.4048         estimate D2E/DX2                !
 ! A12   A(5,4,102)            116.338          estimate D2E/DX2                !
 ! A13   A(1,5,4)               91.9745         estimate D2E/DX2                !
 ! A14   A(2,6,15)             118.868          estimate D2E/DX2                !
 ! A15   A(1,8,9)              128.1236         estimate D2E/DX2                !
 ! A16   A(1,8,12)             122.6656         estimate D2E/DX2                !
 ! A17   A(9,8,12)             109.2108         estimate D2E/DX2                !
 ! A18   A(8,9,10)             114.3231         estimate D2E/DX2                !
 ! A19   A(8,9,13)             119.6024         estimate D2E/DX2                !
 ! A20   A(10,9,13)            126.0745         estimate D2E/DX2                !
 ! A21   A(9,10,11)            112.0639         estimate D2E/DX2                !
 ! A22   A(9,10,14)            124.4979         estimate D2E/DX2                !
 ! A23   A(11,10,14)           123.4382         estimate D2E/DX2                !
 ! A24   A(10,11,12)           112.4271         estimate D2E/DX2                !
 ! A25   A(10,11,101)          129.0876         estimate D2E/DX2                !
 ! A26   A(12,11,101)          115.3767         estimate D2E/DX2                !
 ! A27   A(8,12,11)             91.9751         estimate D2E/DX2                !
 ! A28   A(9,13,58)             86.9611         estimate D2E/DX2                !
 ! A29   A(6,15,16)            109.4712         estimate D2E/DX2                !
 ! A30   A(6,15,17)            109.4712         estimate D2E/DX2                !
 ! A31   A(6,15,18)            109.4712         estimate D2E/DX2                !
 ! A32   A(16,15,17)           109.4713         estimate D2E/DX2                !
 ! A33   A(16,15,18)           109.4712         estimate D2E/DX2                !
 ! A34   A(17,15,18)           109.4712         estimate D2E/DX2                !
 ! A35   A(15,18,19)           109.4712         estimate D2E/DX2                !
 ! A36   A(15,18,20)           109.4712         estimate D2E/DX2                !
 ! A37   A(15,18,21)           109.4712         estimate D2E/DX2                !
 ! A38   A(19,18,20)           109.4713         estimate D2E/DX2                !
 ! A39   A(19,18,21)           109.4712         estimate D2E/DX2                !
 ! A40   A(20,18,21)           109.4712         estimate D2E/DX2                !
 ! A41   A(18,21,22)           109.4712         estimate D2E/DX2                !
 ! A42   A(18,21,23)           109.4712         estimate D2E/DX2                !
 ! A43   A(18,21,24)           109.4712         estimate D2E/DX2                !
 ! A44   A(22,21,23)           109.4712         estimate D2E/DX2                !
 ! A45   A(22,21,24)           109.4713         estimate D2E/DX2                !
 ! A46   A(23,21,24)           109.4712         estimate D2E/DX2                !
 ! A47   A(21,24,25)           109.4712         estimate D2E/DX2                !
 ! A48   A(21,24,26)           109.4712         estimate D2E/DX2                !
 ! A49   A(21,24,27)           109.4712         estimate D2E/DX2                !
 ! A50   A(25,24,26)           109.4712         estimate D2E/DX2                !
 ! A51   A(25,24,27)           109.4713         estimate D2E/DX2                !
 ! A52   A(26,24,27)           109.4712         estimate D2E/DX2                !
 ! A53   A(24,27,28)           109.4712         estimate D2E/DX2                !
 ! A54   A(24,27,29)           109.4712         estimate D2E/DX2                !
 ! A55   A(24,27,30)           109.4712         estimate D2E/DX2                !
 ! A56   A(28,27,29)           109.4713         estimate D2E/DX2                !
 ! A57   A(28,27,30)           109.4712         estimate D2E/DX2                !
 ! A58   A(29,27,30)           109.4712         estimate D2E/DX2                !
 ! A59   A(27,30,31)           109.4712         estimate D2E/DX2                !
 ! A60   A(27,30,32)           109.4712         estimate D2E/DX2                !
 ! A61   A(27,30,33)           109.4712         estimate D2E/DX2                !
 ! A62   A(31,30,32)           109.4713         estimate D2E/DX2                !
 ! A63   A(31,30,33)           109.4712         estimate D2E/DX2                !
 ! A64   A(32,30,33)           109.4712         estimate D2E/DX2                !
 ! A65   A(30,33,34)           109.4712         estimate D2E/DX2                !
 ! A66   A(30,33,35)           109.4712         estimate D2E/DX2                !
 ! A67   A(30,33,36)           109.4712         estimate D2E/DX2                !
 ! A68   A(34,33,35)           109.4712         estimate D2E/DX2                !
 ! A69   A(34,33,36)           109.4713         estimate D2E/DX2                !
 ! A70   A(35,33,36)           109.4712         estimate D2E/DX2                !
 ! A71   A(33,36,37)           109.4712         estimate D2E/DX2                !
 ! A72   A(33,36,38)           109.4712         estimate D2E/DX2                !
 ! A73   A(33,36,39)           109.4712         estimate D2E/DX2                !
 ! A74   A(37,36,38)           109.4712         estimate D2E/DX2                !
 ! A75   A(37,36,39)           109.4713         estimate D2E/DX2                !
 ! A76   A(38,36,39)           109.4712         estimate D2E/DX2                !
 ! A77   A(36,39,40)           109.4712         estimate D2E/DX2                !
 ! A78   A(36,39,41)           109.4712         estimate D2E/DX2                !
 ! A79   A(36,39,42)           109.4712         estimate D2E/DX2                !
 ! A80   A(40,39,41)           109.4712         estimate D2E/DX2                !
 ! A81   A(40,39,42)           109.4713         estimate D2E/DX2                !
 ! A82   A(41,39,42)           109.4712         estimate D2E/DX2                !
 ! A83   A(39,42,43)           109.4712         estimate D2E/DX2                !
 ! A84   A(39,42,44)           109.4712         estimate D2E/DX2                !
 ! A85   A(39,42,45)           109.4712         estimate D2E/DX2                !
 ! A86   A(43,42,44)           109.4712         estimate D2E/DX2                !
 ! A87   A(43,42,45)           109.4713         estimate D2E/DX2                !
 ! A88   A(44,42,45)           109.4712         estimate D2E/DX2                !
 ! A89   A(42,45,46)           109.4712         estimate D2E/DX2                !
 ! A90   A(42,45,47)           109.4712         estimate D2E/DX2                !
 ! A91   A(42,45,48)           109.4712         estimate D2E/DX2                !
 ! A92   A(46,45,47)           109.4712         estimate D2E/DX2                !
 ! A93   A(46,45,48)           109.4713         estimate D2E/DX2                !
 ! A94   A(47,45,48)           109.4712         estimate D2E/DX2                !
 ! A95   A(45,48,49)           109.4712         estimate D2E/DX2                !
 ! A96   A(45,48,50)           109.4712         estimate D2E/DX2                !
 ! A97   A(45,48,51)           109.4712         estimate D2E/DX2                !
 ! A98   A(49,48,50)           109.4712         estimate D2E/DX2                !
 ! A99   A(49,48,51)           109.4713         estimate D2E/DX2                !
 ! A100  A(50,48,51)           109.4712         estimate D2E/DX2                !
 ! A101  A(48,51,52)           109.4712         estimate D2E/DX2                !
 ! A102  A(48,51,53)           109.4712         estimate D2E/DX2                !
 ! A103  A(48,51,54)           109.4712         estimate D2E/DX2                !
 ! A104  A(52,51,53)           109.4712         estimate D2E/DX2                !
 ! A105  A(52,51,54)           109.4713         estimate D2E/DX2                !
 ! A106  A(53,51,54)           109.4712         estimate D2E/DX2                !
 ! A107  A(51,54,55)           109.4712         estimate D2E/DX2                !
 ! A108  A(51,54,56)           109.4712         estimate D2E/DX2                !
 ! A109  A(51,54,57)           109.4712         estimate D2E/DX2                !
 ! A110  A(55,54,56)           109.4713         estimate D2E/DX2                !
 ! A111  A(55,54,57)           109.4712         estimate D2E/DX2                !
 ! A112  A(56,54,57)           109.4712         estimate D2E/DX2                !
 ! A113  A(13,58,59)           109.4712         estimate D2E/DX2                !
 ! A114  A(13,58,60)           109.4712         estimate D2E/DX2                !
 ! A115  A(13,58,61)           109.4712         estimate D2E/DX2                !
 ! A116  A(59,58,60)           109.4713         estimate D2E/DX2                !
 ! A117  A(59,58,61)           109.4712         estimate D2E/DX2                !
 ! A118  A(60,58,61)           109.4712         estimate D2E/DX2                !
 ! A119  A(58,61,62)           109.4712         estimate D2E/DX2                !
 ! A120  A(58,61,63)           109.4712         estimate D2E/DX2                !
 ! A121  A(58,61,64)           109.4712         estimate D2E/DX2                !
 ! A122  A(62,61,63)           109.4712         estimate D2E/DX2                !
 ! A123  A(62,61,64)           109.4713         estimate D2E/DX2                !
 ! A124  A(63,61,64)           109.4712         estimate D2E/DX2                !
 ! A125  A(61,64,65)           109.4712         estimate D2E/DX2                !
 ! A126  A(61,64,66)           109.4712         estimate D2E/DX2                !
 ! A127  A(61,64,67)           109.4712         estimate D2E/DX2                !
 ! A128  A(65,64,66)           109.4712         estimate D2E/DX2                !
 ! A129  A(65,64,67)           109.4713         estimate D2E/DX2                !
 ! A130  A(66,64,67)           109.4712         estimate D2E/DX2                !
 ! A131  A(64,67,68)           109.4712         estimate D2E/DX2                !
 ! A132  A(64,67,69)           109.4712         estimate D2E/DX2                !
 ! A133  A(64,67,70)           109.4712         estimate D2E/DX2                !
 ! A134  A(68,67,69)           109.4713         estimate D2E/DX2                !
 ! A135  A(68,67,70)           109.4712         estimate D2E/DX2                !
 ! A136  A(69,67,70)           109.4712         estimate D2E/DX2                !
 ! A137  A(67,70,71)           109.4712         estimate D2E/DX2                !
 ! A138  A(67,70,72)           109.4712         estimate D2E/DX2                !
 ! A139  A(67,70,73)           109.4712         estimate D2E/DX2                !
 ! A140  A(71,70,72)           109.4713         estimate D2E/DX2                !
 ! A141  A(71,70,73)           109.4712         estimate D2E/DX2                !
 ! A142  A(72,70,73)           109.4712         estimate D2E/DX2                !
 ! A143  A(70,73,74)           109.4712         estimate D2E/DX2                !
 ! A144  A(70,73,75)           109.4712         estimate D2E/DX2                !
 ! A145  A(70,73,76)           109.4712         estimate D2E/DX2                !
 ! A146  A(74,73,75)           109.4712         estimate D2E/DX2                !
 ! A147  A(74,73,76)           109.4713         estimate D2E/DX2                !
 ! A148  A(75,73,76)           109.4712         estimate D2E/DX2                !
 ! A149  A(73,76,77)           109.4712         estimate D2E/DX2                !
 ! A150  A(73,76,78)           109.4712         estimate D2E/DX2                !
 ! A151  A(73,76,79)           109.4712         estimate D2E/DX2                !
 ! A152  A(77,76,78)           109.4712         estimate D2E/DX2                !
 ! A153  A(77,76,79)           109.4713         estimate D2E/DX2                !
 ! A154  A(78,76,79)           109.4712         estimate D2E/DX2                !
 ! A155  A(76,79,80)           109.4712         estimate D2E/DX2                !
 ! A156  A(76,79,81)           109.4712         estimate D2E/DX2                !
 ! A157  A(76,79,82)           109.4712         estimate D2E/DX2                !
 ! A158  A(80,79,81)           109.4712         estimate D2E/DX2                !
 ! A159  A(80,79,82)           109.4713         estimate D2E/DX2                !
 ! A160  A(81,79,82)           109.4712         estimate D2E/DX2                !
 ! A161  A(79,82,83)           109.4712         estimate D2E/DX2                !
 ! A162  A(79,82,84)           109.4712         estimate D2E/DX2                !
 ! A163  A(79,82,85)           109.4712         estimate D2E/DX2                !
 ! A164  A(83,82,84)           109.4712         estimate D2E/DX2                !
 ! A165  A(83,82,85)           109.4713         estimate D2E/DX2                !
 ! A166  A(84,82,85)           109.4712         estimate D2E/DX2                !
 ! A167  A(82,85,86)           109.4712         estimate D2E/DX2                !
 ! A168  A(82,85,87)           109.4712         estimate D2E/DX2                !
 ! A169  A(82,85,88)           109.4712         estimate D2E/DX2                !
 ! A170  A(86,85,87)           109.4713         estimate D2E/DX2                !
 ! A171  A(86,85,88)           109.4712         estimate D2E/DX2                !
 ! A172  A(87,85,88)           109.4712         estimate D2E/DX2                !
 ! A173  A(85,88,89)           109.4712         estimate D2E/DX2                !
 ! A174  A(85,88,90)           109.4712         estimate D2E/DX2                !
 ! A175  A(85,88,91)           109.4712         estimate D2E/DX2                !
 ! A176  A(89,88,90)           109.4713         estimate D2E/DX2                !
 ! A177  A(89,88,91)           109.4712         estimate D2E/DX2                !
 ! A178  A(90,88,91)           109.4712         estimate D2E/DX2                !
 ! A179  A(88,91,92)           109.4712         estimate D2E/DX2                !
 ! A180  A(88,91,93)           109.4712         estimate D2E/DX2                !
 ! A181  A(88,91,94)           109.4712         estimate D2E/DX2                !
 ! A182  A(92,91,93)           109.4712         estimate D2E/DX2                !
 ! A183  A(92,91,94)           109.4713         estimate D2E/DX2                !
 ! A184  A(93,91,94)           109.4712         estimate D2E/DX2                !
 ! A185  A(91,94,95)           109.4712         estimate D2E/DX2                !
 ! A186  A(91,94,96)           109.4712         estimate D2E/DX2                !
 ! A187  A(91,94,97)           109.4712         estimate D2E/DX2                !
 ! A188  A(95,94,96)           109.4712         estimate D2E/DX2                !
 ! A189  A(95,94,97)           109.4713         estimate D2E/DX2                !
 ! A190  A(96,94,97)           109.4712         estimate D2E/DX2                !
 ! A191  A(94,97,98)           109.4712         estimate D2E/DX2                !
 ! A192  A(94,97,99)           109.4712         estimate D2E/DX2                !
 ! A193  A(94,97,100)          109.4712         estimate D2E/DX2                !
 ! A194  A(98,97,99)           109.4713         estimate D2E/DX2                !
 ! A195  A(98,97,100)          109.4712         estimate D2E/DX2                !
 ! A196  A(99,97,100)          109.4712         estimate D2E/DX2                !
 ! D1    D(5,1,2,3)              0.0            estimate D2E/DX2                !
 ! D2    D(5,1,2,6)            179.9517         estimate D2E/DX2                !
 ! D3    D(8,1,2,3)            180.0            estimate D2E/DX2                !
 ! D4    D(8,1,2,6)             -0.0483         estimate D2E/DX2                !
 ! D5    D(2,1,5,4)              0.0            estimate D2E/DX2                !
 ! D6    D(8,1,5,4)            180.0            estimate D2E/DX2                !
 ! D7    D(2,1,8,9)            180.0            estimate D2E/DX2                !
 ! D8    D(2,1,8,12)             0.0387         estimate D2E/DX2                !
 ! D9    D(5,1,8,9)              0.0            estimate D2E/DX2                !
 ! D10   D(5,1,8,12)          -179.9613         estimate D2E/DX2                !
 ! D11   D(1,2,3,4)              0.0            estimate D2E/DX2                !
 ! D12   D(1,2,3,7)            179.9357         estimate D2E/DX2                !
 ! D13   D(6,2,3,4)           -179.948          estimate D2E/DX2                !
 ! D14   D(6,2,3,7)             -0.0123         estimate D2E/DX2                !
 ! D15   D(1,2,6,15)          -179.3864         estimate D2E/DX2                !
 ! D16   D(3,2,6,15)             0.559          estimate D2E/DX2                !
 ! D17   D(2,3,4,5)              0.0            estimate D2E/DX2                !
 ! D18   D(2,3,4,102)         -147.8314         estimate D2E/DX2                !
 ! D19   D(7,3,4,5)           -179.9364         estimate D2E/DX2                !
 ! D20   D(7,3,4,102)           32.2322         estimate D2E/DX2                !
 ! D21   D(3,4,5,1)              0.0            estimate D2E/DX2                !
 ! D22   D(102,4,5,1)          150.2681         estimate D2E/DX2                !
 ! D23   D(2,6,15,16)          -60.1705         estimate D2E/DX2                !
 ! D24   D(2,6,15,17)           59.8296         estimate D2E/DX2                !
 ! D25   D(2,6,15,18)          179.8295         estimate D2E/DX2                !
 ! D26   D(1,8,9,10)           180.0            estimate D2E/DX2                !
 ! D27   D(1,8,9,13)             0.0            estimate D2E/DX2                !
 ! D28   D(12,8,9,10)           -0.0345         estimate D2E/DX2                !
 ! D29   D(12,8,9,13)          179.9655         estimate D2E/DX2                !
 ! D30   D(1,8,12,11)         -179.9866         estimate D2E/DX2                !
 ! D31   D(9,8,12,11)            0.0457         estimate D2E/DX2                !
 ! D32   D(8,9,10,11)            0.0            estimate D2E/DX2                !
 ! D33   D(8,9,10,14)          180.0            estimate D2E/DX2                !
 ! D34   D(13,9,10,11)         180.0            estimate D2E/DX2                !
 ! D35   D(13,9,10,14)           0.0            estimate D2E/DX2                !
 ! D36   D(8,9,13,58)          137.3871         estimate D2E/DX2                !
 ! D37   D(10,9,13,58)         -42.6129         estimate D2E/DX2                !
 ! D38   D(9,10,11,12)           0.0359         estimate D2E/DX2                !
 ! D39   D(9,10,11,101)       -158.8065         estimate D2E/DX2                !
 ! D40   D(14,10,11,12)       -179.9641         estimate D2E/DX2                !
 ! D41   D(14,10,11,101)        21.1935         estimate D2E/DX2                !
 ! D42   D(10,11,12,8)          -0.0474         estimate D2E/DX2                !
 ! D43   D(101,11,12,8)        161.8891         estimate D2E/DX2                !
 ! D44   D(9,13,58,59)         -44.2358         estimate D2E/DX2                !
 ! D45   D(9,13,58,60)          75.7642         estimate D2E/DX2                !
 ! D46   D(9,13,58,61)        -164.2358         estimate D2E/DX2                !
 ! D47   D(6,15,18,19)         -60.395          estimate D2E/DX2                !
 ! D48   D(6,15,18,20)          59.605          estimate D2E/DX2                !
 ! D49   D(6,15,18,21)         179.605          estimate D2E/DX2                !
 ! D50   D(16,15,18,19)        179.605          estimate D2E/DX2                !
 ! D51   D(16,15,18,20)        -60.395          estimate D2E/DX2                !
 ! D52   D(16,15,18,21)         59.605          estimate D2E/DX2                !
 ! D53   D(17,15,18,19)         59.6049         estimate D2E/DX2                !
 ! D54   D(17,15,18,20)        179.605          estimate D2E/DX2                !
 ! D55   D(17,15,18,21)        -60.3951         estimate D2E/DX2                !
 ! D56   D(15,18,21,22)        179.9252         estimate D2E/DX2                !
 ! D57   D(15,18,21,23)        -60.0748         estimate D2E/DX2                !
 ! D58   D(15,18,21,24)         59.9252         estimate D2E/DX2                !
 ! D59   D(19,18,21,22)         59.9253         estimate D2E/DX2                !
 ! D60   D(19,18,21,23)        179.9253         estimate D2E/DX2                !
 ! D61   D(19,18,21,24)        -60.0748         estimate D2E/DX2                !
 ! D62   D(20,18,21,22)        -60.0748         estimate D2E/DX2                !
 ! D63   D(20,18,21,23)         59.9252         estimate D2E/DX2                !
 ! D64   D(20,18,21,24)        179.9252         estimate D2E/DX2                !
 ! D65   D(18,21,24,25)        -89.104          estimate D2E/DX2                !
 ! D66   D(18,21,24,26)         30.896          estimate D2E/DX2                !
 ! D67   D(18,21,24,27)        150.8959         estimate D2E/DX2                !
 ! D68   D(22,21,24,25)        150.896          estimate D2E/DX2                !
 ! D69   D(22,21,24,26)        -89.104          estimate D2E/DX2                !
 ! D70   D(22,21,24,27)         30.896          estimate D2E/DX2                !
 ! D71   D(23,21,24,25)         30.896          estimate D2E/DX2                !
 ! D72   D(23,21,24,26)        150.896          estimate D2E/DX2                !
 ! D73   D(23,21,24,27)        -89.1041         estimate D2E/DX2                !
 ! D74   D(21,24,27,28)         55.8331         estimate D2E/DX2                !
 ! D75   D(21,24,27,29)        175.8331         estimate D2E/DX2                !
 ! D76   D(21,24,27,30)        -64.1669         estimate D2E/DX2                !
 ! D77   D(25,24,27,28)        -64.1669         estimate D2E/DX2                !
 ! D78   D(25,24,27,29)         55.8331         estimate D2E/DX2                !
 ! D79   D(25,24,27,30)        175.8331         estimate D2E/DX2                !
 ! D80   D(26,24,27,28)        175.8331         estimate D2E/DX2                !
 ! D81   D(26,24,27,29)        -64.1669         estimate D2E/DX2                !
 ! D82   D(26,24,27,30)         55.8331         estimate D2E/DX2                !
 ! D83   D(24,27,30,31)        -43.1715         estimate D2E/DX2                !
 ! D84   D(24,27,30,32)         76.8286         estimate D2E/DX2                !
 ! D85   D(24,27,30,33)       -163.1714         estimate D2E/DX2                !
 ! D86   D(28,27,30,31)       -163.1714         estimate D2E/DX2                !
 ! D87   D(28,27,30,32)        -43.1714         estimate D2E/DX2                !
 ! D88   D(28,27,30,33)         76.8286         estimate D2E/DX2                !
 ! D89   D(29,27,30,31)         76.8285         estimate D2E/DX2                !
 ! D90   D(29,27,30,32)       -163.1715         estimate D2E/DX2                !
 ! D91   D(29,27,30,33)        -43.1715         estimate D2E/DX2                !
 ! D92   D(27,30,33,34)       -175.2594         estimate D2E/DX2                !
 ! D93   D(27,30,33,35)         64.7406         estimate D2E/DX2                !
 ! D94   D(27,30,33,36)        -55.2594         estimate D2E/DX2                !
 ! D95   D(31,30,33,34)         64.7406         estimate D2E/DX2                !
 ! D96   D(31,30,33,35)        -55.2594         estimate D2E/DX2                !
 ! D97   D(31,30,33,36)       -175.2594         estimate D2E/DX2                !
 ! D98   D(32,30,33,34)        -55.2594         estimate D2E/DX2                !
 ! D99   D(32,30,33,35)       -175.2594         estimate D2E/DX2                !
 ! D100  D(32,30,33,36)         64.7406         estimate D2E/DX2                !
 ! D101  D(30,33,36,37)         79.6249         estimate D2E/DX2                !
 ! D102  D(30,33,36,38)        -40.3751         estimate D2E/DX2                !
 ! D103  D(30,33,36,39)       -160.3751         estimate D2E/DX2                !
 ! D104  D(34,33,36,37)       -160.3751         estimate D2E/DX2                !
 ! D105  D(34,33,36,38)         79.6249         estimate D2E/DX2                !
 ! D106  D(34,33,36,39)        -40.3751         estimate D2E/DX2                !
 ! D107  D(35,33,36,37)        -40.3751         estimate D2E/DX2                !
 ! D108  D(35,33,36,38)       -160.3751         estimate D2E/DX2                !
 ! D109  D(35,33,36,39)         79.6249         estimate D2E/DX2                !
 ! D110  D(33,36,39,40)        -55.5664         estimate D2E/DX2                !
 ! D111  D(33,36,39,41)         64.4336         estimate D2E/DX2                !
 ! D112  D(33,36,39,42)       -175.5664         estimate D2E/DX2                !
 ! D113  D(37,36,39,40)         64.4336         estimate D2E/DX2                !
 ! D114  D(37,36,39,41)       -175.5664         estimate D2E/DX2                !
 ! D115  D(37,36,39,42)        -55.5664         estimate D2E/DX2                !
 ! D116  D(38,36,39,40)       -175.5664         estimate D2E/DX2                !
 ! D117  D(38,36,39,41)        -55.5664         estimate D2E/DX2                !
 ! D118  D(38,36,39,42)         64.4336         estimate D2E/DX2                !
 ! D119  D(36,39,42,43)         60.374          estimate D2E/DX2                !
 ! D120  D(36,39,42,44)        -59.6259         estimate D2E/DX2                !
 ! D121  D(36,39,42,45)       -179.6259         estimate D2E/DX2                !
 ! D122  D(40,39,42,43)        -59.6259         estimate D2E/DX2                !
 ! D123  D(40,39,42,44)       -179.6259         estimate D2E/DX2                !
 ! D124  D(40,39,42,45)         60.3741         estimate D2E/DX2                !
 ! D125  D(41,39,42,43)       -179.626          estimate D2E/DX2                !
 ! D126  D(41,39,42,44)         60.3741         estimate D2E/DX2                !
 ! D127  D(41,39,42,45)        -59.6259         estimate D2E/DX2                !
 ! D128  D(39,42,45,46)         60.4481         estimate D2E/DX2                !
 ! D129  D(39,42,45,47)        -59.5519         estimate D2E/DX2                !
 ! D130  D(39,42,45,48)       -179.5519         estimate D2E/DX2                !
 ! D131  D(43,42,45,46)       -179.5519         estimate D2E/DX2                !
 ! D132  D(43,42,45,47)         60.4481         estimate D2E/DX2                !
 ! D133  D(43,42,45,48)        -59.5519         estimate D2E/DX2                !
 ! D134  D(44,42,45,46)        -59.5519         estimate D2E/DX2                !
 ! D135  D(44,42,45,47)       -179.5519         estimate D2E/DX2                !
 ! D136  D(44,42,45,48)         60.4481         estimate D2E/DX2                !
 ! D137  D(42,45,48,49)         60.0767         estimate D2E/DX2                !
 ! D138  D(42,45,48,50)        -59.9233         estimate D2E/DX2                !
 ! D139  D(42,45,48,51)       -179.9233         estimate D2E/DX2                !
 ! D140  D(46,45,48,49)       -179.9233         estimate D2E/DX2                !
 ! D141  D(46,45,48,50)         60.0767         estimate D2E/DX2                !
 ! D142  D(46,45,48,51)        -59.9233         estimate D2E/DX2                !
 ! D143  D(47,45,48,49)        -59.9233         estimate D2E/DX2                !
 ! D144  D(47,45,48,50)       -179.9233         estimate D2E/DX2                !
 ! D145  D(47,45,48,51)         60.0767         estimate D2E/DX2                !
 ! D146  D(45,48,51,52)       -179.8053         estimate D2E/DX2                !
 ! D147  D(45,48,51,53)        -59.8053         estimate D2E/DX2                !
 ! D148  D(45,48,51,54)         60.1947         estimate D2E/DX2                !
 ! D149  D(49,48,51,52)        -59.8053         estimate D2E/DX2                !
 ! D150  D(49,48,51,53)         60.1947         estimate D2E/DX2                !
 ! D151  D(49,48,51,54)       -179.8053         estimate D2E/DX2                !
 ! D152  D(50,48,51,52)         60.1947         estimate D2E/DX2                !
 ! D153  D(50,48,51,53)       -179.8053         estimate D2E/DX2                !
 ! D154  D(50,48,51,54)        -59.8053         estimate D2E/DX2                !
 ! D155  D(48,51,54,55)        -84.0589         estimate D2E/DX2                !
 ! D156  D(48,51,54,56)         35.9411         estimate D2E/DX2                !
 ! D157  D(48,51,54,57)        155.9411         estimate D2E/DX2                !
 ! D158  D(52,51,54,55)        155.9411         estimate D2E/DX2                !
 ! D159  D(52,51,54,56)        -84.0589         estimate D2E/DX2                !
 ! D160  D(52,51,54,57)         35.9411         estimate D2E/DX2                !
 ! D161  D(53,51,54,55)         35.9411         estimate D2E/DX2                !
 ! D162  D(53,51,54,56)        155.9411         estimate D2E/DX2                !
 ! D163  D(53,51,54,57)        -84.0589         estimate D2E/DX2                !
 ! D164  D(13,58,61,62)         84.3486         estimate D2E/DX2                !
 ! D165  D(13,58,61,63)       -155.6514         estimate D2E/DX2                !
 ! D166  D(13,58,61,64)        -35.6514         estimate D2E/DX2                !
 ! D167  D(59,58,61,62)        -35.6513         estimate D2E/DX2                !
 ! D168  D(59,58,61,63)         84.3487         estimate D2E/DX2                !
 ! D169  D(59,58,61,64)       -155.6513         estimate D2E/DX2                !
 ! D170  D(60,58,61,62)       -155.6514         estimate D2E/DX2                !
 ! D171  D(60,58,61,63)        -35.6514         estimate D2E/DX2                !
 ! D172  D(60,58,61,64)         84.3486         estimate D2E/DX2                !
 ! D173  D(58,61,64,65)         91.4898         estimate D2E/DX2                !
 ! D174  D(58,61,64,66)        -28.5102         estimate D2E/DX2                !
 ! D175  D(58,61,64,67)       -148.5102         estimate D2E/DX2                !
 ! D176  D(62,61,64,65)        -28.5102         estimate D2E/DX2                !
 ! D177  D(62,61,64,66)       -148.5102         estimate D2E/DX2                !
 ! D178  D(62,61,64,67)         91.4898         estimate D2E/DX2                !
 ! D179  D(63,61,64,65)       -148.5102         estimate D2E/DX2                !
 ! D180  D(63,61,64,66)         91.4898         estimate D2E/DX2                !
 ! D181  D(63,61,64,67)        -28.5102         estimate D2E/DX2                !
 ! D182  D(61,64,67,68)       -174.3677         estimate D2E/DX2                !
 ! D183  D(61,64,67,69)        -54.3677         estimate D2E/DX2                !
 ! D184  D(61,64,67,70)         65.6323         estimate D2E/DX2                !
 ! D185  D(65,64,67,68)        -54.3677         estimate D2E/DX2                !
 ! D186  D(65,64,67,69)         65.6323         estimate D2E/DX2                !
 ! D187  D(65,64,67,70)       -174.3677         estimate D2E/DX2                !
 ! D188  D(66,64,67,68)         65.6323         estimate D2E/DX2                !
 ! D189  D(66,64,67,69)       -174.3677         estimate D2E/DX2                !
 ! D190  D(66,64,67,70)        -54.3677         estimate D2E/DX2                !
 ! D191  D(64,67,70,71)        -76.1679         estimate D2E/DX2                !
 ! D192  D(64,67,70,72)         43.8321         estimate D2E/DX2                !
 ! D193  D(64,67,70,73)        163.8321         estimate D2E/DX2                !
 ! D194  D(68,67,70,71)        163.8321         estimate D2E/DX2                !
 ! D195  D(68,67,70,72)        -76.1679         estimate D2E/DX2                !
 ! D196  D(68,67,70,73)         43.8321         estimate D2E/DX2                !
 ! D197  D(69,67,70,71)         43.8321         estimate D2E/DX2                !
 ! D198  D(69,67,70,72)        163.8321         estimate D2E/DX2                !
 ! D199  D(69,67,70,73)        -76.1679         estimate D2E/DX2                !
 ! D200  D(67,70,73,74)        175.2154         estimate D2E/DX2                !
 ! D201  D(67,70,73,75)        -64.7846         estimate D2E/DX2                !
 ! D202  D(67,70,73,76)         55.2154         estimate D2E/DX2                !
 ! D203  D(71,70,73,74)         55.2155         estimate D2E/DX2                !
 ! D204  D(71,70,73,75)        175.2154         estimate D2E/DX2                !
 ! D205  D(71,70,73,76)        -64.7846         estimate D2E/DX2                !
 ! D206  D(72,70,73,74)        -64.7846         estimate D2E/DX2                !
 ! D207  D(72,70,73,75)         55.2154         estimate D2E/DX2                !
 ! D208  D(72,70,73,76)        175.2154         estimate D2E/DX2                !
 ! D209  D(70,73,76,77)        -79.7403         estimate D2E/DX2                !
 ! D210  D(70,73,76,78)         40.2597         estimate D2E/DX2                !
 ! D211  D(70,73,76,79)        160.2597         estimate D2E/DX2                !
 ! D212  D(74,73,76,77)        160.2597         estimate D2E/DX2                !
 ! D213  D(74,73,76,78)        -79.7403         estimate D2E/DX2                !
 ! D214  D(74,73,76,79)         40.2597         estimate D2E/DX2                !
 ! D215  D(75,73,76,77)         40.2597         estimate D2E/DX2                !
 ! D216  D(75,73,76,78)        160.2597         estimate D2E/DX2                !
 ! D217  D(75,73,76,79)        -79.7403         estimate D2E/DX2                !
 ! D218  D(73,76,79,80)         55.564          estimate D2E/DX2                !
 ! D219  D(73,76,79,81)        -64.436          estimate D2E/DX2                !
 ! D220  D(73,76,79,82)        175.564          estimate D2E/DX2                !
 ! D221  D(77,76,79,80)        -64.436          estimate D2E/DX2                !
 ! D222  D(77,76,79,81)        175.564          estimate D2E/DX2                !
 ! D223  D(77,76,79,82)         55.564          estimate D2E/DX2                !
 ! D224  D(78,76,79,80)        175.564          estimate D2E/DX2                !
 ! D225  D(78,76,79,81)         55.564          estimate D2E/DX2                !
 ! D226  D(78,76,79,82)        -64.436          estimate D2E/DX2                !
 ! D227  D(76,79,82,83)        -60.7436         estimate D2E/DX2                !
 ! D228  D(76,79,82,84)         59.2564         estimate D2E/DX2                !
 ! D229  D(76,79,82,85)        179.2564         estimate D2E/DX2                !
 ! D230  D(80,79,82,83)         59.2564         estimate D2E/DX2                !
 ! D231  D(80,79,82,84)        179.2564         estimate D2E/DX2                !
 ! D232  D(80,79,82,85)        -60.7436         estimate D2E/DX2                !
 ! D233  D(81,79,82,83)        179.2564         estimate D2E/DX2                !
 ! D234  D(81,79,82,84)        -60.7436         estimate D2E/DX2                !
 ! D235  D(81,79,82,85)         59.2564         estimate D2E/DX2                !
 ! D236  D(79,82,85,86)         59.3754         estimate D2E/DX2                !
 ! D237  D(79,82,85,87)        179.3754         estimate D2E/DX2                !
 ! D238  D(79,82,85,88)        -60.6246         estimate D2E/DX2                !
 ! D239  D(83,82,85,86)        -60.6246         estimate D2E/DX2                !
 ! D240  D(83,82,85,87)         59.3755         estimate D2E/DX2                !
 ! D241  D(83,82,85,88)        179.3755         estimate D2E/DX2                !
 ! D242  D(84,82,85,86)        179.3754         estimate D2E/DX2                !
 ! D243  D(84,82,85,87)        -60.6246         estimate D2E/DX2                !
 ! D244  D(84,82,85,88)         59.3754         estimate D2E/DX2                !
 ! D245  D(82,85,88,89)        -37.2804         estimate D2E/DX2                !
 ! D246  D(82,85,88,90)         82.7196         estimate D2E/DX2                !
 ! D247  D(82,85,88,91)       -157.2804         estimate D2E/DX2                !
 ! D248  D(86,85,88,89)       -157.2804         estimate D2E/DX2                !
 ! D249  D(86,85,88,90)        -37.2804         estimate D2E/DX2                !
 ! D250  D(86,85,88,91)         82.7196         estimate D2E/DX2                !
 ! D251  D(87,85,88,89)         82.7196         estimate D2E/DX2                !
 ! D252  D(87,85,88,90)       -157.2804         estimate D2E/DX2                !
 ! D253  D(87,85,88,91)        -37.2804         estimate D2E/DX2                !
 ! D254  D(85,88,91,92)         64.1208         estimate D2E/DX2                !
 ! D255  D(85,88,91,93)        -55.8792         estimate D2E/DX2                !
 ! D256  D(85,88,91,94)       -175.8792         estimate D2E/DX2                !
 ! D257  D(89,88,91,92)        -55.8792         estimate D2E/DX2                !
 ! D258  D(89,88,91,93)       -175.8792         estimate D2E/DX2                !
 ! D259  D(89,88,91,94)         64.1208         estimate D2E/DX2                !
 ! D260  D(90,88,91,92)       -175.8792         estimate D2E/DX2                !
 ! D261  D(90,88,91,93)         64.1208         estimate D2E/DX2                !
 ! D262  D(90,88,91,94)        -55.8792         estimate D2E/DX2                !
 ! D263  D(88,91,94,95)         59.2073         estimate D2E/DX2                !
 ! D264  D(88,91,94,96)        -60.7927         estimate D2E/DX2                !
 ! D265  D(88,91,94,97)        179.2073         estimate D2E/DX2                !
 ! D266  D(92,91,94,95)        179.2073         estimate D2E/DX2                !
 ! D267  D(92,91,94,96)         59.2073         estimate D2E/DX2                !
 ! D268  D(92,91,94,97)        -60.7927         estimate D2E/DX2                !
 ! D269  D(93,91,94,95)        -60.7927         estimate D2E/DX2                !
 ! D270  D(93,91,94,96)        179.2073         estimate D2E/DX2                !
 ! D271  D(93,91,94,97)         59.2073         estimate D2E/DX2                !
 ! D272  D(91,94,97,98)         59.8474         estimate D2E/DX2                !
 ! D273  D(91,94,97,99)        179.8474         estimate D2E/DX2                !
 ! D274  D(91,94,97,100)       -60.1526         estimate D2E/DX2                !
 ! D275  D(95,94,97,98)        179.8474         estimate D2E/DX2                !
 ! D276  D(95,94,97,99)        -60.1526         estimate D2E/DX2                !
 ! D277  D(95,94,97,100)        59.8474         estimate D2E/DX2                !
 ! D278  D(96,94,97,98)        -60.1526         estimate D2E/DX2                !
 ! D279  D(96,94,97,99)         59.8474         estimate D2E/DX2                !
 ! D280  D(96,94,97,100)       179.8474         estimate D2E/DX2                !
 --------------------------------------------------------------------------------
 Trust Radius=3.00D-01 FncErr=1.00D-07 GrdErr=1.00D-06 EigMax=2.50D+02 EigMin=1.00D-04
 Number of steps in this run=    589 maximum allowed number of steps=    612.
 GradGradGradGradGradGradGradGradGradGradGradGradGradGradGradGradGradGrad

 Leave Link  103 at Thu Jan 16 14:16:18 2020, MaxMem=  6710886400 cpu:               1.0 elap:               0.1
 (Enter /apps/gaussian/g16-a03/l202.exe)
 Stoichiometry    C36H60Br2O2S2
 Framework group  C1[X(C36H60Br2O2S2)]
 Deg. of freedom   300
 Full point group                 C1      NOp   1
 Largest Abelian subgroup         C1      NOp   1
 Largest concise Abelian subgroup C1      NOp   1
                         Standard orientation:                         
 ---------------------------------------------------------------------
 Center     Atomic      Atomic             Coordinates (Angstroms)
 Number     Number       Type             X           Y           Z
 ---------------------------------------------------------------------
      1          6           0       -0.067376    0.767398   -0.417765
      2          6           0       -1.357816    1.194270   -0.146637
      3          6           0       -1.514343    2.609114   -0.126412
      4          6           0       -0.342996    3.259040   -0.382156
      5         16           0        0.969194    2.168610   -0.651757
      6          8           0       -2.340363    0.273627    0.070352
      7          1           0       -2.447886    3.116823    0.066860
      8          6           0        0.422609   -0.588196   -0.509626
      9          6           0        1.713048   -1.015068   -0.780755
     10          6           0        1.870543   -2.429773   -0.801186
     11          6           0        0.698229   -3.079838   -0.545235
     12         16           0       -0.614031   -1.990407   -0.276632
     13          8           0        2.695387   -0.094434   -0.998721
     14          1           0        2.803049   -2.938620   -0.995249
     15          6           0       -3.668924    0.731292    0.335625
     16          1           0       -3.668476    1.334942    1.219087
     17          1           0       -4.018308    1.311590   -0.492678
     18          6           0       -4.597475   -0.479839    0.541914
     19          1           0       -4.603275   -1.079808   -0.344034
     20          1           0       -4.244149   -1.063896    1.365891
     21          6           0       -6.026202    0.013143    0.837394
     22          1           0       -6.671633   -0.828369    0.979436
     23          1           0       -6.020622    0.612038    1.724069
     24          6           0       -6.534020    0.855311   -0.347711
     25          1           0       -6.262132    1.879570   -0.199824
     26          1           0       -6.093727    0.496787   -1.254630
     27          6           0       -8.066847    0.739319   -0.440378
     28          1           0       -8.503519    1.029308    0.492427
     29          1           0       -8.426752    1.380855   -1.217424
     30          6           0       -8.453198   -0.717370   -0.757220
     31          1           0       -7.800885   -1.103148   -1.512577
     32          1           0       -8.363541   -1.310879    0.128561
     33          6           0       -9.907430   -0.764618   -1.261777
     34          1           0      -10.202948   -1.783220   -1.403261
     35          1           0       -9.979616   -0.239876   -2.191474
     36          6           0      -10.832441   -0.101075   -0.224634
     37          1           0      -10.776457    0.962672   -0.325672
     38          1           0      -10.523661   -0.382525    0.760424
     39          6           0      -12.282438   -0.563454   -0.459822
     40          1           0      -12.565113   -0.351218   -1.469748
     41          1           0      -12.354162   -1.616323   -0.283124
     42          6           0      -13.222366    0.184052    0.504217
     43          1           0      -13.155511    1.236492    0.323105
     44          1           0      -12.935634   -0.022996    1.514076
     45          6           0      -14.671195   -0.285175    0.275478
     46          1           0      -14.739712   -1.336175    0.464168
     47          1           0      -14.955282   -0.085234   -0.736558
     48          6           0      -15.612538    0.470488    1.231745
     49          1           0      -15.545018    1.521391    1.042151
     50          1           0      -15.327621    0.271612    2.243759
     51          6           0      -17.061126   -0.000129    1.004343
     52          1           0      -17.715601    0.527358    1.666400
     53          1           0      -17.344893    0.195653   -0.008596
     54          6           0      -17.159348   -1.511714    1.281949
     55          1           0      -16.867395   -2.054671    0.407386
     56          1           0      -16.511266   -1.768092    2.093835
     57          1           0      -18.167628   -1.762634    1.537507
     58          6           0        3.537659   -0.912126   -0.182106
     59          1           0        2.996536   -1.226503    0.685796
     60          1           0        3.849023   -1.771177   -0.738867
     61          6           0        4.775400   -0.103856    0.249516
     62          1           0        4.538438    0.474965    1.117684
     63          1           0        5.577993   -0.774275    0.475973
     64          6           0        5.199054    0.836246   -0.894305
     65          1           0        4.716996    1.783921   -0.774165
     66          1           0        4.914172    0.407551   -1.832368
     67          6           0        6.726527    1.029406   -0.860927
     68          1           0        7.009998    1.757647   -1.591824
     69          1           0        7.022377    1.365537    0.110869
     70          6           0        7.420211   -0.309333   -1.174266
     71          1           0        7.372486   -0.945419   -0.315187
     72          1           0        6.926224   -0.783084   -1.996723
     73          6           0        8.893553   -0.050734   -1.540311
     74          1           0        9.396527   -0.985265   -1.676580
     75          1           0        8.941722    0.515737   -2.446782
     76          6           0        9.573661    0.737594   -0.405590
     77          1           0        9.318516    1.773436   -0.488246
     78          1           0        9.239874    0.362342    0.539223
     79          6           0       11.101388    0.575166   -0.511731
     80          1           0       11.425526    0.878466   -1.485303
     81          1           0       11.363024   -0.449984   -0.351998
     82          6           0       11.786039    1.451662    0.553449
     83          1           0       11.534819    2.478169    0.385904
     84          1           0       11.452027    1.156931    1.526316
     85          6           0       13.312983    1.274947    0.459568
     86          1           0       13.645582    1.559365   -0.516845
     87          1           0       13.789195    1.892217    1.192439
     88          6           0       13.675842   -0.199526    0.716208
     89          1           0       13.032811   -0.598636    1.472596
     90          1           0       13.553837   -0.759354   -0.187455
     91          6           0       15.139780   -0.293843    1.184813
     92          1           0       15.246127    0.205421    2.125199
     93          1           0       15.776626    0.169909    0.460754
     94          6           0       15.534073   -1.774182    1.342068
     95          1           0       15.414533   -2.276611    0.404958
     96          1           0       14.906270   -2.234457    2.076173
     97          6           0       17.003982   -1.868945    1.791499
     98          1           0       17.124066   -1.364228    2.727309
     99          1           0       17.277158   -2.897424    1.903330
    100          1           0       17.632021   -1.411025    1.056124
    101         35           0        0.423194   -4.854555    0.075036
    102         35           0        0.103465    4.945517    0.370483
 ---------------------------------------------------------------------
 Rotational constants (GHZ):           0.0955955           0.0098473           0.0090636
 Leave Link  202 at Thu Jan 16 14:16:18 2020, MaxMem=  6710886400 cpu:               0.7 elap:               0.1
 (Enter /apps/gaussian/g16-a03/l301.exe)
 Standard basis: 6-311G(d,p) (5D, 7F)
 Ernie: Thresh=  0.10000D-02 Tol=  0.10000D-05 Strict=F.
 There are  1230 symmetry adapted cartesian basis functions of A   symmetry.
 There are  1184 symmetry adapted basis functions of A   symmetry.
  1184 basis functions,  1968 primitive gaussians,  1230 cartesian basis functions
   197 alpha electrons      197 beta electrons
       nuclear repulsion energy      5980.2247361613 Hartrees.
 IExCor=  402 DFT=T Ex+Corr=B3LYP ExCW=0 ScaHFX=  0.200000
 ScaDFX=  0.800000  0.720000  1.000000  0.810000 ScalE2=  1.000000  1.000000
 IRadAn=      5 IRanWt=     -1 IRanGd=            0 ICorTp=0 IEmpDi=  4
 NAtoms=  102 NActive=  102 NUniq=  102 SFac= 1.00D+00 NAtFMM=   60 NAOKFM=T Big=T
 Integral buffers will be    131072 words long.
 Raffenetti 2 integral format.
 Two-electron integral symmetry is turned on.
 Leave Link  301 at Thu Jan 16 14:16:18 2020, MaxMem=  6710886400 cpu:               1.2 elap:               0.1
 (Enter /apps/gaussian/g16-a03/l302.exe)
 NPDir=0 NMtPBC=     1 NCelOv=     1 NCel=       1 NClECP=     1 NCelD=      1
         NCelK=      1 NCelE2=     1 NClLst=     1 CellRange=     0.0.
 One-electron integrals computed using PRISM.
 One-electron integral symmetry used in STVInt
 NBasis=  1184 RedAO= T EigKep=  2.89D-04  NBF=  1184
 NBsUse=  1184 1.00D-06 EigRej= -1.00D+00 NBFU=  1184
 Precomputing XC quadrature grid using
 IXCGrd= 4 IRadAn=           5 IRanWt=          -1 IRanGd=           0 AccXCQ= 0.00D+00.
 Generated NRdTot=       0 NPtTot=           0 NUsed=           0 NTot=          32
 NSgBfM=   753   741   752   752   753 MxSgAt=   102 MxSgA2=   101.
[...]
 Alpha virt. eigenvalues --    1.61266   1.61410   1.61685   1.61909   1.62015
 Alpha virt. eigenvalues --    1.62403   1.62498   1.62926   1.63314   1.63346
 Alpha virt. eigenvalues --    1.63435   1.63534   1.63772   1.64201   1.64386
 Alpha virt. eigenvalues --    1.65221   1.65388   1.65868   1.66543   1.66601
 Alpha virt. eigenvalues --    1.66891   1.66927   1.67197   1.67870   1.68022
 Alpha virt. eigenvalues --    1.68042   1.68347   1.68919   1.69120   1.69462
 Alpha virt. eigenvalues --    1.69508   1.69791   1.70078   1.70388   1.70472
 Alpha virt. eigenvalues --    1.70878   1.71066   1.71136   1.71306   1.71468
 Alpha virt. eigenvalues --    1.71678   1.71976   1.72100   1.72177   1.72401
 Alpha virt. eigenvalues --    1.72844   1.72924   1.72990   1.73183   1.73662
 Alpha virt. eigenvalues --    1.74003   1.74135   1.74277   1.74392   1.74986
 Alpha virt. eigenvalues --    1.75090   1.75341   1.75561   1.75791   1.76617
 Alpha virt. eigenvalues --    1.76851   1.77870   1.78017   1.78357   1.79088
 Alpha virt. eigenvalues --    1.79557   1.80395   1.80781   1.81008   1.82103
 Alpha virt. eigenvalues --    1.82409   1.82482   1.82801   1.83318   1.83632
 Alpha virt. eigenvalues --    1.83767   1.84469   1.85202   1.85682   1.85867
 Alpha virt. eigenvalues --    1.86306   1.86604   1.87675   1.88184   1.88385
 Alpha virt. eigenvalues --    1.88857   1.89112   1.89819   1.90135   1.90462
 Alpha virt. eigenvalues --    1.90612   1.91354   1.91689   1.92392   1.92658
 Alpha virt. eigenvalues --    1.93838   1.93919   1.94476   1.95116   1.95981
 Alpha virt. eigenvalues --    1.96258   1.97020   1.97067   1.97897   1.98045
 Alpha virt. eigenvalues --    1.98336   1.98725   1.98993   1.99702   1.99909
 Alpha virt. eigenvalues --    2.00134   2.00736   2.01118   2.01425   2.01889
 Alpha virt. eigenvalues --    2.02303   2.02869   2.02966   2.03484   2.03976
 Alpha virt. eigenvalues --    2.04178   2.04199   2.04550   2.05346   2.05422
 Alpha virt. eigenvalues --    2.05718   2.05939   2.06528   2.06681   2.06730
 Alpha virt. eigenvalues --    2.07045   2.07695   2.08487   2.08708   2.09636
 Alpha virt. eigenvalues --    2.09758   2.10468   2.10704   2.11189   2.11432
 Alpha virt. eigenvalues --    2.12117   2.12180   2.13920   2.14080   2.15021
 Alpha virt. eigenvalues --    2.15139   2.15772   2.15915   2.16235   2.16415
 Alpha virt. eigenvalues --    2.17335   2.17654   2.18047   2.18384   2.19185
 Alpha virt. eigenvalues --    2.19381   2.20033   2.20345   2.21120   2.21459
 Alpha virt. eigenvalues --    2.22286   2.22569   2.23792   2.24311   2.24909
 Alpha virt. eigenvalues --    2.25170   2.25583   2.26000   2.26306   2.26670
 Alpha virt. eigenvalues --    2.26825   2.27464   2.28139   2.28593   2.28774
 Alpha virt. eigenvalues --    2.28900   2.29042   2.30405   2.30428   2.30636
 Alpha virt. eigenvalues --    2.31549   2.32233   2.32529   2.33449   2.33773
 Alpha virt. eigenvalues --    2.34522   2.35028   2.35629   2.35903   2.35941
 Alpha virt. eigenvalues --    2.36785   2.38340   2.38591   2.38836   2.39632
 Alpha virt. eigenvalues --    2.39688   2.40753   2.40801   2.41438   2.41637
 Alpha virt. eigenvalues --    2.42004   2.42423   2.43287   2.43356   2.44129
 Alpha virt. eigenvalues --    2.44600   2.45070   2.45171   2.45661   2.46036
 Alpha virt. eigenvalues --    2.46345   2.46898   2.46949   2.47059   2.47717
 Alpha virt. eigenvalues --    2.48093   2.48302   2.48726   2.49026   2.49322
 Alpha virt. eigenvalues --    2.49692   2.49947   2.50695   2.50989   2.51603
 Alpha virt. eigenvalues --    2.51628   2.52361   2.52627   2.52675   2.53362
 Alpha virt. eigenvalues --    2.53428   2.54075   2.54353   2.54768   2.55002
 Alpha virt. eigenvalues --    2.55184   2.55870   2.56493   2.56529   2.56643
 Alpha virt. eigenvalues --    2.56883   2.56939   2.57284   2.57602   2.58001
 Alpha virt. eigenvalues --    2.58226   2.58517   2.58873   2.59059   2.59344
 Alpha virt. eigenvalues --    2.59936   2.60285   2.60396   2.61242   2.61825
 Alpha virt. eigenvalues --    2.62418   2.62825   2.62953   2.63451   2.63803
 Alpha virt. eigenvalues --    2.64140   2.64390   2.64474   2.65116   2.65607
 Alpha virt. eigenvalues --    2.65939   2.66728   2.66857   2.67085   2.67362
 Alpha virt. eigenvalues --    2.67711   2.67905   2.68389   2.68638   2.69198
 Alpha virt. eigenvalues --    2.69458   2.69938   2.70454   2.70557   2.70794
 Alpha virt. eigenvalues --    2.71172   2.71471   2.72008   2.72245   2.72308
 Alpha virt. eigenvalues --    2.73611   2.73729   2.74850   2.74886   2.75483
 Alpha virt. eigenvalues --    2.76436   2.76698   2.76823   2.76867   2.77745
 Alpha virt. eigenvalues --    2.78016   2.78803   2.78981   2.79568   2.80065
 Alpha virt. eigenvalues --    2.80486   2.81018   2.81215   2.81827   2.82229
 Alpha virt. eigenvalues --    2.82476   2.83096   2.83414   2.84261   2.84430
 Alpha virt. eigenvalues --    2.84579   2.84837   2.84927   2.85138   2.85796
 Alpha virt. eigenvalues --    2.85906   2.86130   2.86684   2.87057   2.87481
 Alpha virt. eigenvalues --    2.88351   2.89087   2.89569   2.89930   2.90324
 Alpha virt. eigenvalues --    2.90440   2.91426   2.92086   2.95106   2.95332
 Alpha virt. eigenvalues --    2.97063   2.97861   2.98026   2.98189   2.98601
 Alpha virt. eigenvalues --    2.98745   3.01083   3.01909   3.04208   3.04716
 Alpha virt. eigenvalues --    3.05319   3.05791   3.07552   3.07879   3.08654
 Alpha virt. eigenvalues --    3.09370   3.09463   3.10719   3.13640   3.14995
 Alpha virt. eigenvalues --    3.19335   3.19471   3.20158   3.21291   3.22475
 Alpha virt. eigenvalues --    3.23298   3.26177   3.27021   3.27846   3.28310
 Alpha virt. eigenvalues --    3.31567   3.32886   3.33186   3.33779   3.35679
 Alpha virt. eigenvalues --    3.36029   3.36231   3.37114   3.37939   3.38858
 Alpha virt. eigenvalues --    3.40550   3.41887   3.42563   3.43526   3.44395
 Alpha virt. eigenvalues --    3.69112   3.75531   3.76057   3.76745   3.76792
 Alpha virt. eigenvalues --    3.77287   3.77627   3.78442   3.78761   3.79480
 Alpha virt. eigenvalues --    3.79572   3.79801   3.80066   3.80377   3.80638
 Alpha virt. eigenvalues --    3.80912   3.81497   3.81644   3.81720   3.82594
 Alpha virt. eigenvalues --    3.82721   3.82807   3.83057   3.83444   3.84014
 Alpha virt. eigenvalues --    3.84797   3.84929   3.85054   3.85091   3.85298
 Alpha virt. eigenvalues --    3.85910   3.86006   3.86152   3.99459   4.00959
 Alpha virt. eigenvalues --    4.01649   4.02631   4.03134   4.03580   4.04823
 Alpha virt. eigenvalues --    4.06137   4.07278   4.07913   4.10815   4.10863
 Alpha virt. eigenvalues --    4.12430   4.12965   4.12996   4.13563   4.14497
 Alpha virt. eigenvalues --    4.15494   4.15671   4.17651   4.18551   4.20694
 Alpha virt. eigenvalues --    4.20708   4.21249   4.22829   4.25259   4.25910
 Alpha virt. eigenvalues --    4.28570   4.28912   4.31778   4.32489   4.32992
 Alpha virt. eigenvalues --    4.33075   4.35946   4.36286   4.39288   4.39858
 Alpha virt. eigenvalues --    4.41811   4.42395   4.53173   4.53672   4.58126
 Alpha virt. eigenvalues --    4.91395   4.93796   5.31166   5.33007   5.76437
 Alpha virt. eigenvalues --    5.79758   6.48390   6.49499   7.45678   7.45721
 Alpha virt. eigenvalues --    7.50662   7.51158   7.61028   7.63363   7.79828
 Alpha virt. eigenvalues --    7.80333  17.19406  17.21372  17.43342  17.44717
 Alpha virt. eigenvalues --   17.48735  17.52936  23.37352  23.55001  23.68488
 Alpha virt. eigenvalues --   23.78831  23.79621  23.80006  23.84057  23.84359
 Alpha virt. eigenvalues --   23.84696  23.85245  23.85602  23.85677  23.85784
 Alpha virt. eigenvalues --   23.86029  23.86857  23.87362  23.87697  23.87860
 Alpha virt. eigenvalues --   23.88358  23.88435  23.88578  23.89037  23.89772
 Alpha virt. eigenvalues --   23.89826  23.90556  23.90852  23.91359  23.91924
 Alpha virt. eigenvalues --   23.92387  23.92642  23.93927  23.94392  24.02585
 Alpha virt. eigenvalues --   24.02889  24.12028  24.12286  47.77205  47.78057
 Alpha virt. eigenvalues --   49.92841  49.93690 188.90734 188.91567 289.65412
 Alpha virt. eigenvalues --  289.65455 289.70285 289.70788 289.83320 289.85194
 Alpha virt. eigenvalues -- 1020.521601020.53220
          Condensed to atoms (all electrons):
 Mulliken charges:
               1
     1  C   -0.248537
     2  C    0.251699
     3  C   -0.034597
     4  C   -0.371446
     5  S    0.398029
     6  O   -0.382122
     7  H    0.119030
     8  C   -0.240875
     9  C    0.250431
    10  C   -0.035028
    11  C   -0.361869
    12  S    0.383466
    13  O   -0.385012
    14  H    0.119462
    15  C   -0.015127
    16  H    0.110366
    17  H    0.117122
    18  C   -0.223776
    19  H    0.122376
    20  H    0.127413
    21  C   -0.224683
    22  H    0.118413
    23  H    0.104595
    24  C   -0.210635
    25  H    0.103372
    26  H    0.106390
    27  C   -0.206981
    28  H    0.106982
    29  H    0.105445
    30  C   -0.207432
    31  H    0.104410
    32  H    0.105299
    33  C   -0.207065
    34  H    0.104323
    35  H    0.101774
    36  C   -0.203279
    37  H    0.105327
    38  H    0.100203
    39  C   -0.200272
    40  H    0.100935
    41  H    0.100760
    42  C   -0.200415
    43  H    0.100045
    44  H    0.100744
    45  C   -0.201883
    46  H    0.105542
    47  H    0.099647
    48  C   -0.211194
    49  H    0.103245
    50  H    0.100770
    51  C   -0.222226
    52  H    0.106122
    53  H    0.103046
    54  C   -0.294094
    55  H    0.104413
    56  H    0.101257
    57  H    0.106446
    58  C   -0.028844
    59  H    0.120383
    60  H    0.111672
    61  C   -0.221201
    62  H    0.122559
    63  H    0.111444
    64  C   -0.213944
    65  H    0.136318
    66  H    0.097906
    67  C   -0.212783
    68  H    0.106843
    69  H    0.112191
    70  C   -0.208989
    71  H    0.102872
    72  H    0.102760
    73  C   -0.206497
    74  H    0.102729
    75  H    0.102026
    76  C   -0.202113
    77  H    0.107034
    78  H    0.099274
    79  C   -0.201456
    80  H    0.100177
    81  H    0.105171
    82  C   -0.206732
    83  H    0.103675
    84  H    0.100492
    85  C   -0.206573
    86  H    0.100908
    87  H    0.103209
    88  C   -0.201578
    89  H    0.099117
    90  H    0.105174
    91  C   -0.201632
    92  H    0.099825
    93  H    0.100132
    94  C   -0.222014
    95  H    0.102751
    96  H    0.102909
    97  C   -0.289704
    98  H    0.101294
    99  H    0.105332
   100  H    0.101223
   101  Br   0.023400
   102  Br   0.022910
 Sum of Mulliken charges =  -0.00000
 Mulliken charges with hydrogens summed into heavy atoms:
               1
     1  C   -0.248537
     2  C    0.251699
     3  C    0.084433
     4  C   -0.371446
     5  S    0.398029
     6  O   -0.382122
     8  C   -0.240875
     9  C    0.250431
    10  C    0.084434
    11  C   -0.361869
    12  S    0.383466
    13  O   -0.385012
    15  C    0.212361
    18  C    0.026012
    21  C   -0.001675
    24  C   -0.000873
    27  C    0.005446
    30  C    0.002277
    33  C   -0.000968
    36  C    0.002251
    39  C    0.001423
    42  C    0.000374
    45  C    0.003306
    48  C   -0.007180
    51  C   -0.013057
    54  C    0.018022
    58  C    0.203211
    61  C    0.012803
    64  C    0.020280
    67  C    0.006250
    70  C   -0.003357
    73  C   -0.001742
    76  C    0.004195
    79  C    0.003893
    82  C   -0.002566
    85  C   -0.002456
    88  C    0.002713
    91  C   -0.001674
    94  C   -0.016353
    97  C    0.018145
   101  Br   0.023400
   102  Br   0.022910
 Electronic spatial extent (au):  <R**2>=         113047.7249
 Charge=             -0.0000 electrons
 Dipole moment (field-independent basis, Debye):
    X=             -0.4062    Y=              0.2495    Z=             -0.1263  Tot=              0.4931
 Quadrupole moment (field-independent basis, Debye-Ang):
   XX=           -281.1121   YY=           -308.8461   ZZ=           -310.1586
   XY=            -14.0367   XZ=              2.4492   YZ=             -1.0162
 Traceless Quadrupole moment (field-independent basis, Debye-Ang):
   XX=             18.9268   YY=             -8.8072   ZZ=            -10.1196
   XY=            -14.0367   XZ=              2.4492   YZ=             -1.0162
 Octapole moment (field-independent basis, Debye-Ang**2):
  XXX=            -11.2450  YYY=           -138.4116  ZZZ=             10.5543  XYY=             29.7764
  XXY=           -117.9633  XXZ=             12.4489  XZZ=             12.1352  YZZ=            -36.9098
  YYZ=              6.3011  XYZ=             -2.0367
 Hexadecapole moment (field-independent basis, Debye-Ang**3):
 XXXX=        -136834.1356 YYYY=         -18810.4448 ZZZZ=          -1548.6834 XXXY=           -524.1258
 XXXZ=             26.7913 YYYX=            -62.2403 YYYZ=           -200.3541 ZZZX=            -15.6457
 ZZZY=           -158.4590 XXYY=         -25744.2128 XXZZ=         -22758.8383 YYZZ=          -3444.0469
 XXYZ=            -86.7289 YYXZ=             40.8338 ZZXY=            105.7538
 N-N= 5.899756804898D+03 E-N=-2.961543464621D+04  KE= 7.489009869525D+03
 Leave Link  601 at Thu Jan 16 17:01:42 2020, MaxMem=  6710886400 cpu:              13.9 elap:               1.0
 (Enter /apps/gaussian/g16-a03/l9999.exe)
 1\1\GINC-CX1-141-15-1\FOpt\RB3LYP\6-311G(d,p)\C36H60Br2O2S2\NS5018\16-
 Jan-2020\0\\#p opt b3lyp/6-311g(d,p)\\OBT_1m_14sc_Sn_opt.gjf\\0,1\C,0.
 0240866218,-1.5292445478,0.1630032098\C,1.1040246498,-0.66690975,0.263
 2924735\C,0.8268006143,0.6745954918,-0.1293814585\C,-0.469476103,0.818
 7233138,-0.5271502941\S,-1.3817468754,-0.6510622942,-0.4400175899\O,2.
 3004382868,-1.1416305045,0.7035606515\H,1.5410325683,1.483202919,-0.11
 92809985\C,-0.0200097518,-2.9357446098,0.4739194241\C,-1.1018491881,-3
 .7969707509,0.381905741\C,-0.8176693137,-5.1423384602,0.7558533702\C,0
 .4842192256,-5.2890307422,1.1340695624\S,1.3948328883,-3.8185506231,1.
 0489747267\O,-2.3049418577,-3.3200411115,-0.0376472418\H,-1.5308682531
 ,-5.9517987122,0.7472208269\C,3.3938155925,-0.2237092968,0.8372092726\
 H,3.6205054729,0.2192772264,-0.1411586993\H,3.1057892891,0.5799499568,
 1.5235970908\C,4.5907902213,-1.0047864961,1.3580582192\H,4.33651654,-1
 .4288809779,2.3351549687\H,4.757747731,-1.8492440682,0.6826891203\C,5.
 876021341,-0.1686922727,1.4633556677\H,6.7013766993,-0.8529733145,1.68
 02266641\H,6.1036254535,0.277144804,0.4859879194\C,5.8378728973,0.9379
 602,2.5282593659\H,5.0196811769,1.6324280865,2.3073789613\H,5.60122748
 35,0.4902970364,3.5024242144\C,7.1378331134,1.7507276703,2.6459226169\
 H,7.3778945896,2.1797197608,1.6660064116\H,6.9562230331,2.6022029037,3
 .3132487111\C,8.3399956554,0.9605603318,3.1834185158\H,8.043457164,0.4
 70295305,4.1191038911\H,8.6032184223,0.1547004661,2.4882328117\C,9.591
 4662072,1.812089768,3.4505481326\H,10.3319775144,1.1914910611,3.969450
 6482\H,9.3350092824,2.6218668106,4.1461864678\C,10.2446504632,2.409122
 1072,2.1971237313\H,9.5393071421,3.0769250533,1.6891195894\H,10.464527
 0199,1.6007079324,1.4872005461\C,11.5340997804,3.1831098785,2.49575724
 22\H,11.3159707463,3.9854235288,3.2125001655\H,12.2482712995,2.5162490
 776,2.9959266124\C,12.1922351862,3.785205957,1.2491158337\H,11.4778036
 406,4.4520491782,0.7491771445\H,12.410103849,2.9828972593,0.5322618025
 \C,13.4818593391,4.5592019645,1.547048646\H,14.1886476473,3.8906773188
 ,2.0520395946\H,13.263030986,5.3658955266,2.2592250708\C,14.1324270301
 ,5.159322439,0.2940465195\H,13.3933930642,5.7874483672,-0.218213852\H,
 14.3810157874,4.3515088725,-0.4069827255\C,15.3914762525,5.9991555646,
 0.5608506717\H,15.6862429949,6.4921858236,-0.372302105\H,15.1439394553
 ,6.8048517783,1.263132164\C,16.5856924412,5.2027550851,1.0986266848\H,
 16.3745366575,4.7574483745,2.0743668725\H,16.8560179183,4.3910549443,0
 .4152614145\H,17.4643766257,5.8431189803,1.2153332444\C,-3.3870207929,
 -4.2476637585,-0.2057792337\H,-3.0973189633,-5.0075621904,-0.940997139
 2\H,-3.5895710724,-4.7472709842,0.7501974414\C,-4.6103327028,-3.479195
 0196,-0.6786531173\H,-4.3546975133,-2.95650881,-1.6071872969\H,-5.3763
 842044,-4.2189780061,-0.9348516637\C,-5.1512321474,-2.4809151296,0.353
 4923003\H,-4.3355524682,-1.8201388401,0.6588131301\H,-5.4608987487,-3.
 0274684085,1.2542585651\C,-6.3235961429,-1.6258958834,-0.1510861821\H,
 -6.5424022315,-0.8589333504,0.6017539531\H,-6.0051050613,-1.0853185942
 ,-1.0498120295\C,-7.6121309099,-2.4108274301,-0.4368459175\H,-7.442345
 6178,-3.1325272956,-1.2451570576\H,-7.8630225643,-3.0032571778,0.45213
 68257\C,-8.8223141511,-1.5361680091,-0.8019881214\H,-9.7166233365,-2.1
 704335209,-0.8316525119\H,-8.9950800286,-0.8070667542,0.0004490407\C,-
 8.7011317138,-0.7968101716,-2.1408384576\H,-7.8407854728,-0.1181919177
 ,-2.11755137\H,-8.4928644619,-1.5257524951,-2.9353943902\C,-9.95630319
 64,0.0042896047,-2.5078476633\H,-10.1639072496,0.7342203538,-1.7141539
 556\H,-10.8171417737,-0.6738937767,-2.5304272083\C,-9.8341054939,0.741
 8870555,-3.8475590189\H,-8.9378646954,1.3734503693,-3.8186180778\H,-9.
 6625573695,0.0111269471,-4.6488679607\C,-11.0407753516,1.6197897541,-4
 .2148260217\H,-11.2168063921,2.3456513853,-3.4100812523\H,-10.78614071
 62,2.2105882145,-5.1031541188\C,-12.3382010443,0.8500609311,-4.4946098
 816\H,-12.1496245847,0.1005649062,-5.2747467814\H,-12.6416538853,0.290
 7325236,-3.6021090204\C,-13.496898648,1.7534597604,-4.9322453223\H,-13
 .2028194085,2.3102801764,-5.8315872151\H,-13.6807564892,2.5079790467,-
 4.1561765706\C,-14.7984137591,0.993883966,-5.2134816005\H,-15.09347937
 37,0.4392897534,-4.3143819442\H,-14.6150795718,0.2395163147,-5.9882981
 485\C,-15.9493562721,1.9044120993,-5.650982145\H,-15.6981501806,2.4463
 898237,-6.5681599211\H,-16.8614625559,1.3326341771,-5.8430117595\H,-16
 .1796145577,2.6480688242,-4.8815481551\Br,1.3069325982,-6.8905760186,1
 .7114356157\Br,-1.2849417322,2.4156562039,-1.1268886446\\Version=ES64L
 -G16RevA.03\State=1-A\HF=-7503.5478258\RMSD=7.268e-09\RMSF=9.712e-07\D
 ipole=0.1366822,0.1292701,0.0474035\Quadrupole=10.6737714,-3.0258731,-
 7.6478983,12.4864753,2.5624374,2.8768394\PG=C01 [X(C36H60Br2O2S2)]\\@


 THOUGH I SPEAK WITH THE TONGUES OF MEN AND OF ANGELS, 
 AND HAVE NOT LOVE,
 I AM BECOME AS SOUNDING BRASS, A TINKLING CYMBAL.
 AND THOUGH I HAVE THE GIFT OF PROPHECY,
 AND UNDERSTAND ALL MYSTERIES, AND ALL KNOWLEDGE.
 AND THOUGH I HAVE ALL FAITH, SO THAT I COULD REMOVE MOUNTAINS,
 AND HAVE NOT LOVE, I AM NOTHING.
 AND THOUGH I BESTOW ALL MY GOODS TO FEED THE POOR,
 AND THOUGH I GIVE MY BODY TO BE BURNED,
 AND HAVE NOT LOVE IT PROFITETH ME NOTHING.
 LOVE SUFFERETH LONG, AND IS KIND,
 LOVE ENVIETH NOT,
 LOVE VAUNTETH NOT ITSELF, IS NOT PUFFED UP,
 DOTH NOT BEHAVE ITSELF UNSEEMLY, SEEKETH NOT HER OWN,
 IS NOT EASILY PROVOKED, THINKETH NO EVIL,
 REJOICETH NOT IN INIQUITY, BUT REJOICETH IN THE TRUTH,
 BEARETH ALL THINGS, BELIEVETH ALL THINGS,
 HOPETH ALL THINGS, ENDURETH ALL THINGS.
 LOVE NEVER FAILETH, BUT WHETHER THERE BE PROPHECIES, THEY SHALL FAIL, 
 WHETHER THERE BE TONGUES, THEY SHALL CEASE,
 WHETHER THERE BE KNOWLEDGE, IT SHALL VANISH AWAY.
 FOR WE KNOW IN PART, AND WE PROPHESY IN PART.
 BUT WHEN THAT WHICH IS PERFECT IS COME, THEN THAT WHICH IS IN PART 
 SHALL BE DONE AWAY. 
 WHEN I WAS A CHILD, I SPAKE AS A CHILD, I UNDERSTOOD AS A CHILD, 
 I THOUGHT AS A CHILD.
 BUT WHEN I BECAME A MAN, I PUT AWAY CHILDISH THINGS.
 FOR NOW WE SEE THROUGH A GLASS, DARKLY, BUT THEN FACE TO FACE.
 NOW I KNOW IN PART. BUT THEN SHALL I KNOW EVEN AS ALSO I AM KNOWN.
 AND NOW ABIDETH FAITH, HOPE AND LOVE, THESE THREE.
 BUT THE GREATEST OF THESE IS LOVE.

                     I CORINTHIANS 13
 Job cpu time:       1 days 19 hours 47 minutes 54.5 seconds.
 Elapsed time:       0 days  2 hours 45 minutes  4.8 seconds.
 File lengths (MBytes):  RWF=    861 Int=      0 D2E=      0 Chk=    106 Scr=      1
 Normal termination of Gaussian 16 at Thu Jan 16 17:01:42 2020.
