 Entering Gaussian System, Link 0=g16
 Input=OBT_1m_0sc_Sn_opt_pop.gjf
 Output=OBT_1m_0sc_Sn_opt_pop.log
 Initial command:
 /apps/gaussian/g16-a03/l1.exe "/tmp/pbs.979080.pbs/Gau-24992.inp" -scrdir="/tmp/pbs.979080.pbs/"
 Entering Link 1 = /apps/gaussian/g16-a03/l1.exe PID=     24993.
  
 Copyright (c) 1988,1990,1992,1993,1995,1998,2003,2009,2016,
            Gaussian, Inc.  All Rights Reserved.
  
 This is part of the Gaussian(R) 16 program.  It is based on
 the Gaussian(R) 09 system (copyright 2009, Gaussian, Inc.),
 the Gaussian(R) 03 system (copyright 2003, Gaussian, Inc.),
 the Gaussian(R) 98 system (copyright 1998, Gaussian, Inc.),
 the Gaussian(R) 94 system (copyright 1995, Gaussian, Inc.),
 the Gaussian 92(TM) system (copyright 1992, Gaussian, Inc.),
 the Gaussian 90(TM) system (copyright 1990, Gaussian, Inc.),
 the Gaussian 88(TM) system (copyright 1988, Gaussian, Inc.),
 the Gaussian 86(TM) system (copyright 1986, Carnegie Mellon
 University), and the Gaussian 82(TM) system (copyright 1983,
 Carnegie Mellon University). Gaussian is a federally registered
 trademark of Gaussian, Inc.
  
 This software contains proprietary and confidential information,
 including trade secrets, belonging to Gaussian, Inc.
  
 This software is provided under written license and may be
 used, copied, transmitted, or stored only in accord with that
 written license.
  
 The following legend is applicable only to US Government
 contracts under FAR:
  
                    RESTRICTED RIGHTS LEGEND
  
 Use, reproduction and disclosure by the US Government is
 subject to restrictions as set forth in subparagraphs (a)
 and (c) of the Commercial Computer Software - Restricted
 Rights clause in FAR 52.227-19.
  
 Gaussian, Inc.
 340 Quinnipiac St., Bldg. 40, Wallingford CT 06492
  
  
 ---------------------------------------------------------------
 Warning -- This program may not be used in any manner that
 competes with the business of Gaussian, Inc. or will provide
 assistance to any competitor of Gaussian, Inc.  The licensee
 of this program is prohibited from giving any competitor of
 Gaussian, Inc. access to this program.  By using this program,
 the user acknowledges that Gaussian, Inc. is engaged in the
 business of creating and licensing software in the field of
 computational chemistry and represents and warrants to the
 licensee that it is not a competitor of Gaussian, Inc. and that
 it will not use this program in any manner prohibited above.
 ---------------------------------------------------------------
  

 Cite this work as:
 Gaussian 16, Revision A.03,
 M. J. Frisch, G. W. Trucks, H. B. Schlegel, G. E. Scuseria, 
 M. A. Robb, J. R. Cheeseman, G. Scalmani, V. Barone, 
 G. A. Petersson, H. Nakatsuji, X. Li, M. Caricato, A. V. Marenich, 
 J. Bloino, B. G. Janesko, R. Gomperts, B. Mennucci, H. P. Hratchian, 
 J. V. Ortiz, A. F. Izmaylov, J. L. Sonnenberg, D. Williams-Young, 
 F. Ding, F. Lipparini, F. Egidi, J. Goings, B. Peng, A. Petrone, 
 T. Henderson, D. Ranasinghe, V. G. Zakrzewski, J. Gao, N. Rega, 
 G. Zheng, W. Liang, M. Hada, M. Ehara, K. Toyota, R. Fukuda, 
 J. Hasegawa, M. Ishida, T. Nakajima, Y. Honda, O. Kitao, H. Nakai, 
 T. Vreven, K. Throssell, J. A. Montgomery, Jr., J. E. Peralta, 
 F. Ogliaro, M. J. Bearpark, J. J. Heyd, E. N. Brothers, K. N. Kudin, 
 V. N. Staroverov, T. A. Keith, R. Kobayashi, J. Normand, 
 K. Raghavachari, A. P. Rendell, J. C. Burant, S. S. Iyengar, 
 J. Tomasi, M. Cossi, J. M. Millam, M. Klene, C. Adamo, R. Cammi, 
 J. W. Ochterski, R. L. Martin, K. Morokuma, O. Farkas, 
 J. B. Foresman, and D. J. Fox, Gaussian, Inc., Wallingford CT, 2016.
 
 ******************************************
 Gaussian 16:  ES64L-G16RevA.03 25-Dec-2016
                20-Jan-2020 
 ******************************************
 %mem=50GB
 %nprocshared=8
 Will use up to    8 processors via shared memory.
 ------------------------------
 #p opt pop=MKUFF b3lyp/lanl2dz
 ------------------------------
 1/18=20,19=15,26=3,38=1/1,3;
 2/9=110,12=2,17=6,18=5,40=1/2;
 3/5=6,6=3,11=2,25=1,30=1,71=1,74=-5/1,2,3;
 4//1;
 5/5=2,38=5/2;
 6/7=2,8=2,9=2,10=2,15=8,20=4,28=1/1,2;
 7//1,2,3,16;
 1/18=20,19=15,26=3/3(2);
 2/9=110/2;
 99//99;
 2/9=110/2;
 3/5=6,6=3,11=2,25=1,30=1,71=1,74=-5/1,2,3;
 4/5=5,16=3,69=1/1;
 5/5=2,38=5/2;
 7//1,2,3,16;
 1/18=20,19=15,26=3/3(-5);
 2/9=110/2;
 6/7=2,8=2,9=2,10=2,15=8,19=2,20=4,28=1/1,2;
 99/9=1/99;
 Leave Link    1 at Mon Jan 20 17:12:56 2020, MaxMem=  6710886400 cpu:               0.3 elap:               0.0
 (Enter /apps/gaussian/g16-a03/l101.exe)
 ----------------------
 OBT_1m_14sc_Sn_opt.gjf
 ----------------------
 Symbolic Z-matrix:
 Charge =  0 Multiplicity = 1
 C                     0.13982   0.72029   0.08342 
 C                     1.38582   1.32729   0.08342 
 C                     1.34382   2.75029   0.08342 
 C                     0.06582   3.22629   0.08342 
 S                    -1.10818   1.95929   0.08342 
 O                     2.51082   0.55629   0.08442 
 H                     2.21682   3.38629   0.08442 
 C                    -0.16418  -0.69171   0.08342 
 C                    -1.41018  -1.29871   0.08342 
 C                    -1.36918  -2.72171   0.08342 
 C                    -0.09018  -3.19771   0.08342 
 S                     1.08382  -1.93171   0.08442 
 O                    -2.53518  -0.52771   0.08342 
 H                    -2.24118  -3.35871   0.08342 
 C                     3.78821   1.19895   0.09782 
 H                     3.88689   1.81456  -0.77177 
 H                     3.87333   1.80509   0.97545 
 C                     4.89931   0.13262   0.10066 
 H                     4.80478  -0.47865   0.97376 
 H                     4.81     -0.47788  -0.77353 
 C                     6.27501   0.82474   0.10508 
 H                     7.04701   0.08385   0.10837 
 H                     6.37006   1.43499  -0.76868 
 C                     6.40282   1.70487   1.36231 
 H                     6.02715   2.68436   1.15169 
 H                     5.8383    1.27041   2.16072 
 C                     7.88381   1.80054   1.77356 
 H                     8.45978   2.16716   0.9497 
 H                     7.98121   2.46982   2.60271 
 C                     8.39564   0.4053    2.17721 
 H                     7.66114  -0.08243   2.78344 
 H                     8.57576  -0.17676   1.29763 
 C                     9.70538   0.54977   2.97427 
 H                     10.10447  -0.42072   3.18351 
 H                     9.50884   1.06043   3.89378 
 C                     10.72361   1.35606   2.14679 
 H                     10.49975   2.3995    2.22427 
 H                     10.66858   1.05463   1.1216 
 C                     12.14321   1.09438   2.6833 
 H                     12.17747   1.32315   3.728 
 H                     12.3965   0.06542   2.53501 
 C                     13.14896   1.98438   1.92966 
 H                     12.89952   3.0135    2.08328 
 H                     13.12221   1.74589   0.79971 
 H                     14.23672   2.2818    2.06105 
 C                    -3.06674  -1.43744  -0.88339 
 H                    -2.31866  -1.65608  -1.61651 
 H                    -3.36376  -2.3425   -0.39599 
 C                    -4.2884   -0.79988  -1.5709 
 H                    -3.95957  -0.17626  -2.37581 
 H                    -4.9247   -1.5703   -1.95361 
 C                    -5.06751   0.04898  -0.54913 
 H                    -4.7083    1.05656  -0.57473 
 H                    -4.92661  -0.35509   0.43157 
 C                    -6.56641   0.02925  -0.90198 
 H                    -7.09444   0.69617  -0.25289 
 H                    -6.69799   0.34084  -1.91712 
 C                    -7.11598  -1.39879  -0.728 
 H                    -6.80245  -2.00452  -1.55244 
 H                    -6.74233  -1.81615   0.18364 
 C                    -8.65458  -1.35435  -0.67954 
 H                    -9.03922  -2.35214  -0.64264 
 H                    -8.96865  -0.81858   0.19179 
 C                    -9.18754  -0.64496  -1.93823 
 H                    -9.10246   0.41435  -1.81361 
 H                    -8.61571  -0.95104  -2.78924 
 C                    -10.66596  -1.01964  -2.15146 
 H                    -11.22437  -0.78405  -1.26965 
 H                    -10.74282  -2.0677   -2.35291 
 C                    -11.23009  -0.22499  -3.34389 
 H                    -11.16513   0.8228   -3.13698 
 H                    -10.66347  -0.45074  -4.22302 
 C                    -12.70321  -0.61347  -3.56882 
 H                    -13.27174  -0.37834  -2.69338 
 H                    -13.09222  -0.06885  -4.40366 
 H                    -12.43256  -1.53589  -3.99116 
 Sn                   -0.23018   5.34529   0.08442 
 C                     0.49282   6.36829   1.85642 
 H                     1.55382   6.48929   1.79042 
 H                     0.02882   7.33029   1.92742 
 H                     0.25282   5.79129   2.72442 
 C                    -2.40018   5.34529   0.08442 
 H                    -2.75718   4.84329  -0.79058 
 H                    -2.75718   4.83929   0.95742 
 H                    -2.75718   6.35429   0.08642 
 C                     0.49282   6.36829  -1.68758 
 H                     0.06882   7.35029  -1.73058 
 H                     1.55982   6.44229  -1.64658 
 H                     0.20682   5.81829  -2.55858 
 Sn                    0.33382  -5.29571   0.08442 
 C                     1.72282  -6.11771  -1.36658 
 H                     2.72582  -5.95271  -1.03358 
 H                     1.54982  -7.16871  -1.46958 
 H                     1.57682  -5.63771  -2.31158 
 C                     1.39682  -5.88771   1.88142 
 H                     1.36382  -6.95271   1.98042 
 H                     2.41482  -5.56671   1.81542 
 H                     0.93482  -5.43571   2.73442 
 C                    -1.42418  -6.56771   0.08542 
 H                    -2.02018  -6.35171   0.94642 
 H                    -1.99618  -6.38571  -0.80058 
 H                    -1.12118  -7.59371   0.10942 
 
 ITRead=  0  0  0  0  0  0  0  0  0  0  0  0  0  0  0  0  0  0  0  0
 ITRead=  0  0  0  0  0  0  0  0  0  0  0  0  0  0  0  0  0  0  0  0
 ITRead=  0  0  0  0  0  0  0  0  0  0  0  0  0  0  0  0  0  0  0  0
 ITRead=  0  0  0  0  0  0  0  0  0  0  0  0  0  0  0  0  0  0  0  0
 ITRead=  0  0  0  0  0  0  0  0  0  0  0  0  0  0  0  0  0  0  0  0
 ITRead=  0  0
 MicOpt= -1 -1 -1 -1 -1 -1 -1 -1 -1 -1 -1 -1 -1 -1 -1 -1 -1 -1 -1 -1
 MicOpt= -1 -1 -1 -1 -1 -1 -1 -1 -1 -1 -1 -1 -1 -1 -1 -1 -1 -1 -1 -1
 MicOpt= -1 -1 -1 -1 -1 -1 -1 -1 -1 -1 -1 -1 -1 -1 -1 -1 -1 -1 -1 -1
 MicOpt= -1 -1 -1 -1 -1 -1 -1 -1 -1 -1 -1 -1 -1 -1 -1 -1 -1 -1 -1 -1
 MicOpt= -1 -1 -1 -1 -1 -1 -1 -1 -1 -1 -1 -1 -1 -1 -1 -1 -1 -1 -1 -1
 MicOpt= -1 -1
 NAtoms=    102 NQM=      102 NQMF=       0 NMMI=      0 NMMIF=      0
                NMic=       0 NMicF=      0.
                    Isotopes and Nuclear Properties:
 (Nuclear quadrupole moments (NQMom) in fm**2, nuclear magnetic moments (NMagM)
  in nuclear magnetons)

  Atom         1           2           3           4           5           6           7           8           9          10
 IAtWgt=          12          12          12          12          32          16           1          12          12          12
 AtmWgt=  12.0000000  12.0000000  12.0000000  12.0000000  31.9720718  15.9949146   1.0078250  12.0000000  12.0000000  12.0000000
 NucSpn=           0           0           0           0           0           0           1           0           0           0
 AtZEff=  -0.0000000  -0.0000000  -0.0000000  -0.0000000  -0.0000000  -0.0000000  -0.0000000  -0.0000000  -0.0000000  -0.0000000
 NQMom=    0.0000000   0.0000000   0.0000000   0.0000000   0.0000000   0.0000000   0.0000000   0.0000000   0.0000000   0.0000000
 NMagM=    0.0000000   0.0000000   0.0000000   0.0000000   0.0000000   0.0000000   2.7928460   0.0000000   0.0000000   0.0000000
 AtZNuc=   6.0000000   6.0000000   6.0000000   6.0000000  16.0000000   8.0000000   1.0000000   6.0000000   6.0000000   6.0000000

  Atom        11          12          13          14          15          16          17          18          19          20
 IAtWgt=          12          32          16           1          12           1           1          12           1           1
 AtmWgt=  12.0000000  31.9720718  15.9949146   1.0078250  12.0000000   1.0078250   1.0078250  12.0000000   1.0078250   1.0078250
 NucSpn=           0           0           0           1           0           1           1           0           1           1
 AtZEff=  -0.0000000  -0.0000000  -0.0000000  -0.0000000  -0.0000000  -0.0000000  -0.0000000  -0.0000000  -0.0000000  -0.0000000
 NQMom=    0.0000000   0.0000000   0.0000000   0.0000000   0.0000000   0.0000000   0.0000000   0.0000000   0.0000000   0.0000000
 NMagM=    0.0000000   0.0000000   0.0000000   2.7928460   0.0000000   2.7928460   2.7928460   0.0000000   2.7928460   2.7928460
 AtZNuc=   6.0000000  16.0000000   8.0000000   1.0000000   6.0000000   1.0000000   1.0000000   6.0000000   1.0000000   1.0000000

  Atom        21          22          23          24          25          26          27          28          29          30
 IAtWgt=          12           1           1          12           1           1          12           1           1          12
 AtmWgt=  12.0000000   1.0078250   1.0078250  12.0000000   1.0078250   1.0078250  12.0000000   1.0078250   1.0078250  12.0000000
 NucSpn=           0           1           1           0           1           1           0           1           1           0
 AtZEff=  -0.0000000  -0.0000000  -0.0000000  -0.0000000  -0.0000000  -0.0000000  -0.0000000  -0.0000000  -0.0000000  -0.0000000
 NQMom=    0.0000000   0.0000000   0.0000000   0.0000000   0.0000000   0.0000000   0.0000000   0.0000000   0.0000000   0.0000000
 NMagM=    0.0000000   2.7928460   2.7928460   0.0000000   2.7928460   2.7928460   0.0000000   2.7928460   2.7928460   0.0000000
 AtZNuc=   6.0000000   1.0000000   1.0000000   6.0000000   1.0000000   1.0000000   6.0000000   1.0000000   1.0000000   6.0000000

  Atom        31          32          33          34          35          36          37          38          39          40
 IAtWgt=           1           1          12           1           1          12           1           1          12           1
 AtmWgt=   1.0078250   1.0078250  12.0000000   1.0078250   1.0078250  12.0000000   1.0078250   1.0078250  12.0000000   1.0078250
 NucSpn=           1           1           0           1           1           0           1           1           0           1
 AtZEff=  -0.0000000  -0.0000000  -0.0000000  -0.0000000  -0.0000000  -0.0000000  -0.0000000  -0.0000000  -0.0000000  -0.0000000
 NQMom=    0.0000000   0.0000000   0.0000000   0.0000000   0.0000000   0.0000000   0.0000000   0.0000000   0.0000000   0.0000000
 NMagM=    2.7928460   2.7928460   0.0000000   2.7928460   2.7928460   0.0000000   2.7928460   2.7928460   0.0000000   2.7928460
 AtZNuc=   1.0000000   1.0000000   6.0000000   1.0000000   1.0000000   6.0000000   1.0000000   1.0000000   6.0000000   1.0000000

  Atom        41          42          43          44          45          46          47          48          49          50
 IAtWgt=           1          12           1           1           1          12           1           1          12           1
 AtmWgt=   1.0078250  12.0000000   1.0078250   1.0078250   1.0078250  12.0000000   1.0078250   1.0078250  12.0000000   1.0078250
 NucSpn=           1           0           1           1           1           0           1           1           0           1
 AtZEff=  -0.0000000  -0.0000000  -0.0000000  -0.0000000  -0.0000000  -0.0000000  -0.0000000  -0.0000000  -0.0000000  -0.0000000
 NQMom=    0.0000000   0.0000000   0.0000000   0.0000000   0.0000000   0.0000000   0.0000000   0.0000000   0.0000000   0.0000000
 NMagM=    2.7928460   0.0000000   2.7928460   2.7928460   2.7928460   0.0000000   2.7928460   2.7928460   0.0000000   2.7928460
 AtZNuc=   1.0000000   6.0000000   1.0000000   1.0000000   1.0000000   6.0000000   1.0000000   1.0000000   6.0000000   1.0000000

  Atom        51          52          53          54          55          56          57          58          59          60
 IAtWgt=           1          12           1           1          12           1           1          12           1           1
 AtmWgt=   1.0078250  12.0000000   1.0078250   1.0078250  12.0000000   1.0078250   1.0078250  12.0000000   1.0078250   1.0078250
 NucSpn=           1           0           1           1           0           1           1           0           1           1
 AtZEff=  -0.0000000  -0.0000000  -0.0000000  -0.0000000  -0.0000000  -0.0000000  -0.0000000  -0.0000000  -0.0000000  -0.0000000
 NQMom=    0.0000000   0.0000000   0.0000000   0.0000000   0.0000000   0.0000000   0.0000000   0.0000000   0.0000000   0.0000000
 NMagM=    2.7928460   0.0000000   2.7928460   2.7928460   0.0000000   2.7928460   2.7928460   0.0000000   2.7928460   2.7928460
 AtZNuc=   1.0000000   6.0000000   1.0000000   1.0000000   6.0000000   1.0000000   1.0000000   6.0000000   1.0000000   1.0000000

  Atom        61          62          63          64          65          66          67          68          69          70
 IAtWgt=          12           1           1          12           1           1          12           1           1          12
 AtmWgt=  12.0000000   1.0078250   1.0078250  12.0000000   1.0078250   1.0078250  12.0000000   1.0078250   1.0078250  12.0000000
 NucSpn=           0           1           1           0           1           1           0           1           1           0
 AtZEff=  -0.0000000  -0.0000000  -0.0000000  -0.0000000  -0.0000000  -0.0000000  -0.0000000  -0.0000000  -0.0000000  -0.0000000
 NQMom=    0.0000000   0.0000000   0.0000000   0.0000000   0.0000000   0.0000000   0.0000000   0.0000000   0.0000000   0.0000000
 NMagM=    0.0000000   2.7928460   2.7928460   0.0000000   2.7928460   2.7928460   0.0000000   2.7928460   2.7928460   0.0000000
 AtZNuc=   6.0000000   1.0000000   1.0000000   6.0000000   1.0000000   1.0000000   6.0000000   1.0000000   1.0000000   6.0000000

  Atom        71          72          73          74          75          76          77          78          79          80
 IAtWgt=           1           1          12           1           1           1         118          12           1           1
 AtmWgt=   1.0078250   1.0078250  12.0000000   1.0078250   1.0078250   1.0078250 117.9018000  12.0000000   1.0078250   1.0078250
 NucSpn=           1           1           0           1           1           1           0           0           1           1
 AtZEff=  -0.0000000  -0.0000000  -0.0000000  -0.0000000  -0.0000000  -0.0000000  -0.0000000  -0.0000000  -0.0000000  -0.0000000
 NQMom=    0.0000000   0.0000000   0.0000000   0.0000000   0.0000000   0.0000000   0.0000000   0.0000000   0.0000000   0.0000000
 NMagM=    2.7928460   2.7928460   0.0000000   2.7928460   2.7928460   2.7928460   0.0000000   0.0000000   2.7928460   2.7928460
 AtZNuc=   1.0000000   1.0000000   6.0000000   1.0000000   1.0000000   1.0000000  50.0000000   6.0000000   1.0000000   1.0000000

  Atom        81          82          83          84          85          86          87          88          89          90
 IAtWgt=           1          12           1           1           1          12           1           1           1         118
 AtmWgt=   1.0078250  12.0000000   1.0078250   1.0078250   1.0078250  12.0000000   1.0078250   1.0078250   1.0078250 117.9018000
 NucSpn=           1           0           1           1           1           0           1           1           1           0
 AtZEff=  -0.0000000  -0.0000000  -0.0000000  -0.0000000  -0.0000000  -0.0000000  -0.0000000  -0.0000000  -0.0000000  -0.0000000
 NQMom=    0.0000000   0.0000000   0.0000000   0.0000000   0.0000000   0.0000000   0.0000000   0.0000000   0.0000000   0.0000000
 NMagM=    2.7928460   0.0000000   2.7928460   2.7928460   2.7928460   0.0000000   2.7928460   2.7928460   2.7928460   0.0000000
 AtZNuc=   1.0000000   6.0000000   1.0000000   1.0000000   1.0000000   6.0000000   1.0000000   1.0000000   1.0000000  50.0000000

  Atom        91          92          93          94          95          96          97          98          99         100
 IAtWgt=          12           1           1           1          12           1           1           1          12           1
 AtmWgt=  12.0000000   1.0078250   1.0078250   1.0078250  12.0000000   1.0078250   1.0078250   1.0078250  12.0000000   1.0078250
 NucSpn=           0           1           1           1           0           1           1           1           0           1
 AtZEff=  -0.0000000  -0.0000000  -0.0000000  -0.0000000  -0.0000000  -0.0000000  -0.0000000  -0.0000000  -0.0000000  -0.0000000
 NQMom=    0.0000000   0.0000000   0.0000000   0.0000000   0.0000000   0.0000000   0.0000000   0.0000000   0.0000000   0.0000000
 NMagM=    0.0000000   2.7928460   2.7928460   2.7928460   0.0000000   2.7928460   2.7928460   2.7928460   0.0000000   2.7928460
 AtZNuc=   6.0000000   1.0000000   1.0000000   1.0000000   6.0000000   1.0000000   1.0000000   1.0000000   6.0000000   1.0000000

  Atom       101         102
 IAtWgt=           1           1
 AtmWgt=   1.0078250   1.0078250
 NucSpn=           1           1
 AtZEff=  -0.0000000  -0.0000000
 NQMom=    0.0000000   0.0000000
 NMagM=    2.7928460   2.7928460
 AtZNuc=   1.0000000   1.0000000
 Leave Link  101 at Mon Jan 20 17:12:57 2020, MaxMem=  6710886400 cpu:               5.3 elap:               0.7
 (Enter /apps/gaussian/g16-a03/l103.exe)

 GradGradGradGradGradGradGradGradGradGradGradGradGradGradGradGradGradGrad
 Berny optimization.
 Initialization pass.
                           ----------------------------
                           !    Initial Parameters    !
                           ! (Angstroms and Degrees)  !
 --------------------------                            --------------------------
 ! Name  Definition              Value          Derivative Info.                !
 --------------------------------------------------------------------------------
 ! R1    R(1,2)                  1.386          estimate D2E/DX2                !
 ! R2    R(1,5)                  1.7586         estimate D2E/DX2                !
 ! R3    R(1,8)                  1.4444         estimate D2E/DX2                !
 ! R4    R(2,3)                  1.4236         estimate D2E/DX2                !
 ! R5    R(2,6)                  1.3638         estimate D2E/DX2                !
 ! R6    R(3,4)                  1.3638         estimate D2E/DX2                !
 ! R7    R(3,7)                  1.0801         estimate D2E/DX2                !
 ! R8    R(4,5)                  1.7273         estimate D2E/DX2                !
 ! R9    R(4,77)                 2.1396         estimate D2E/DX2                !
 ! R10   R(6,15)                 1.43           estimate D2E/DX2                !
 ! R11   R(8,9)                  1.386          estimate D2E/DX2                !
 ! R12   R(8,12)                 1.7593         estimate D2E/DX2                !
 ! R13   R(9,10)                 1.4236         estimate D2E/DX2                !
 ! R14   R(9,13)                 1.3638         estimate D2E/DX2                !
 ! R15   R(10,11)                1.3647         estimate D2E/DX2                !
 ! R16   R(10,14)                1.0799         estimate D2E/DX2                !
 ! R17   R(11,12)                1.7266         estimate D2E/DX2                !
 ! R18   R(11,90)                2.1404         estimate D2E/DX2                !
 ! R19   R(13,46)                1.43           estimate D2E/DX2                !
 ! R20   R(15,16)                1.07           estimate D2E/DX2                !
 ! R21   R(15,17)                1.07           estimate D2E/DX2                !
 ! R22   R(15,18)                1.54           estimate D2E/DX2                !
 ! R23   R(18,19)                1.07           estimate D2E/DX2                !
 ! R24   R(18,20)                1.07           estimate D2E/DX2                !
 ! R25   R(18,21)                1.54           estimate D2E/DX2                !
 ! R26   R(21,22)                1.07           estimate D2E/DX2                !
 ! R27   R(21,23)                1.07           estimate D2E/DX2                !
 ! R28   R(21,24)                1.54           estimate D2E/DX2                !
 ! R29   R(24,25)                1.07           estimate D2E/DX2                !
 ! R30   R(24,26)                1.07           estimate D2E/DX2                !
 ! R31   R(24,27)                1.54           estimate D2E/DX2                !
 ! R32   R(27,28)                1.07           estimate D2E/DX2                !
 ! R33   R(27,29)                1.07           estimate D2E/DX2                !
 ! R34   R(27,30)                1.54           estimate D2E/DX2                !
 ! R35   R(30,31)                1.07           estimate D2E/DX2                !
 ! R36   R(30,32)                1.07           estimate D2E/DX2                !
 ! R37   R(30,33)                1.54           estimate D2E/DX2                !
 ! R38   R(33,34)                1.07           estimate D2E/DX2                !
 ! R39   R(33,35)                1.07           estimate D2E/DX2                !
 ! R40   R(33,36)                1.54           estimate D2E/DX2                !
 ! R41   R(36,37)                1.07           estimate D2E/DX2                !
 ! R42   R(36,38)                1.07           estimate D2E/DX2                !
 ! R43   R(36,39)                1.54           estimate D2E/DX2                !
 ! R44   R(39,40)                1.07           estimate D2E/DX2                !
 ! R45   R(39,41)                1.07           estimate D2E/DX2                !
 ! R46   R(39,42)                1.54           estimate D2E/DX2                !
 ! R47   R(42,43)                1.07           estimate D2E/DX2                !
 ! R48   R(42,44)                1.1551         estimate D2E/DX2                !
 ! R49   R(42,45)                1.1353         estimate D2E/DX2                !
 ! R50   R(46,47)                1.07           estimate D2E/DX2                !
 ! R51   R(46,48)                1.07           estimate D2E/DX2                !
 ! R52   R(46,49)                1.54           estimate D2E/DX2                !
 ! R53   R(49,50)                1.07           estimate D2E/DX2                !
 ! R54   R(49,51)                1.07           estimate D2E/DX2                !
 ! R55   R(49,52)                1.54           estimate D2E/DX2                !
 ! R56   R(52,53)                1.07           estimate D2E/DX2                !
 ! R57   R(52,54)                1.07           estimate D2E/DX2                !
 ! R58   R(52,55)                1.54           estimate D2E/DX2                !
 ! R59   R(55,56)                1.07           estimate D2E/DX2                !
 ! R60   R(55,57)                1.07           estimate D2E/DX2                !
 ! R61   R(55,58)                1.54           estimate D2E/DX2                !
 ! R62   R(58,59)                1.07           estimate D2E/DX2                !
 ! R63   R(58,60)                1.07           estimate D2E/DX2                !
 ! R64   R(58,61)                1.54           estimate D2E/DX2                !
 ! R65   R(61,62)                1.07           estimate D2E/DX2                !
 ! R66   R(61,63)                1.07           estimate D2E/DX2                !
 ! R67   R(61,64)                1.54           estimate D2E/DX2                !
 ! R68   R(64,65)                1.07           estimate D2E/DX2                !
 ! R69   R(64,66)                1.07           estimate D2E/DX2                !
 ! R70   R(64,67)                1.54           estimate D2E/DX2                !
 ! R71   R(67,68)                1.07           estimate D2E/DX2                !
 ! R72   R(67,69)                1.07           estimate D2E/DX2                !
 ! R73   R(67,70)                1.54           estimate D2E/DX2                !
 ! R74   R(70,71)                1.07           estimate D2E/DX2                !
 ! R75   R(70,72)                1.07           estimate D2E/DX2                !
 ! R76   R(70,73)                1.54           estimate D2E/DX2                !
 ! R77   R(73,74)                1.07           estimate D2E/DX2                !
 ! R78   R(73,75)                1.07           estimate D2E/DX2                !
 ! R79   R(73,76)                1.05           estimate D2E/DX2                !
 ! R80   R(77,78)                2.1701         estimate D2E/DX2                !
 ! R81   R(77,82)                2.17           estimate D2E/DX2                !
 ! R82   R(77,86)                2.1701         estimate D2E/DX2                !
 ! R83   R(78,79)                1.0699         estimate D2E/DX2                !
 ! R84   R(78,80)                1.0704         estimate D2E/DX2                !
 ! R85   R(78,81)                1.0696         estimate D2E/DX2                !
 ! R86   R(82,83)                1.0701         estimate D2E/DX2                !
 ! R87   R(82,84)                1.0703         estimate D2E/DX2                !
 ! R88   R(82,85)                1.0703         estimate D2E/DX2                !
 ! R89   R(86,87)                1.0705         estimate D2E/DX2                !
 ! R90   R(86,88)                1.0703         estimate D2E/DX2                !
 ! R91   R(86,89)                1.0691         estimate D2E/DX2                !
 ! R92   R(90,91)                2.1703         estimate D2E/DX2                !
 ! R93   R(90,95)                2.1702         estimate D2E/DX2                !
 ! R94   R(90,99)                2.1699         estimate D2E/DX2                !
 ! R95   R(91,92)                1.0696         estimate D2E/DX2                !
 ! R96   R(91,93)                1.0701         estimate D2E/DX2                !
 ! R97   R(91,94)                1.0699         estimate D2E/DX2                !
 ! R98   R(95,96)                1.0701         estimate D2E/DX2                !
 ! R99   R(95,97)                1.0694         estimate D2E/DX2                !
 ! R100  R(95,98)                1.0702         estimate D2E/DX2                !
 ! R101  R(99,100)               1.0692         estimate D2E/DX2                !
 ! R102  R(99,101)               1.0702         estimate D2E/DX2                !
 ! R103  R(99,102)               1.0701         estimate D2E/DX2                !
 ! A1    A(2,1,5)              109.2339         estimate D2E/DX2                !
 ! A2    A(2,1,8)              128.1236         estimate D2E/DX2                !
 ! A3    A(5,1,8)              122.6425         estimate D2E/DX2                !
 ! A4    A(1,2,3)              114.2828         estimate D2E/DX2                !
 ! A5    A(1,2,6)              119.6024         estimate D2E/DX2                !
 ! A6    A(3,2,6)              126.1147         estimate D2E/DX2                !
 ! A7    A(2,3,4)              112.1188         estimate D2E/DX2                !
 ! A8    A(2,3,7)              124.3836         estimate D2E/DX2                !
 ! A9    A(4,3,7)              123.4976         estimate D2E/DX2                !
 ! A10   A(3,4,5)              112.3899         estimate D2E/DX2                !
 ! A11   A(3,4,77)             118.3803         estimate D2E/DX2                !
 ! A12   A(5,4,77)             129.2298         estimate D2E/DX2                !
 ! A13   A(1,5,4)               91.9745         estimate D2E/DX2                !
 ! A14   A(2,6,15)             118.868          estimate D2E/DX2                !
 ! A15   A(1,8,9)              128.1236         estimate D2E/DX2                !
 ! A16   A(1,8,12)             122.6656         estimate D2E/DX2                !
 ! A17   A(9,8,12)             109.2108         estimate D2E/DX2                !
 ! A18   A(8,9,10)             114.3231         estimate D2E/DX2                !
 ! A19   A(8,9,13)             119.6024         estimate D2E/DX2                !
 ! A20   A(10,9,13)            126.0745         estimate D2E/DX2                !
 ! A21   A(9,10,11)            112.0639         estimate D2E/DX2                !
 ! A22   A(9,10,14)            124.4979         estimate D2E/DX2                !
 ! A23   A(11,10,14)           123.4382         estimate D2E/DX2                !
 ! A24   A(10,11,12)           112.4271         estimate D2E/DX2                !
 ! A25   A(10,11,90)           121.839          estimate D2E/DX2                !
 ! A26   A(12,11,90)           125.7339         estimate D2E/DX2                !
 ! A27   A(8,12,11)             91.9751         estimate D2E/DX2                !
 ! A28   A(9,13,46)             86.9611         estimate D2E/DX2                !
 ! A29   A(6,15,16)            109.4712         estimate D2E/DX2                !
 ! A30   A(6,15,17)            109.4712         estimate D2E/DX2                !
 ! A31   A(6,15,18)            109.4712         estimate D2E/DX2                !
 ! A32   A(16,15,17)           109.4713         estimate D2E/DX2                !
 ! A33   A(16,15,18)           109.4712         estimate D2E/DX2                !
 ! A34   A(17,15,18)           109.4712         estimate D2E/DX2                !
 ! A35   A(15,18,19)           109.4712         estimate D2E/DX2                !
 ! A36   A(15,18,20)           109.4712         estimate D2E/DX2                !
 ! A37   A(15,18,21)           109.4712         estimate D2E/DX2                !
 ! A38   A(19,18,20)           109.4713         estimate D2E/DX2                !
 ! A39   A(19,18,21)           109.4712         estimate D2E/DX2                !
 ! A40   A(20,18,21)           109.4712         estimate D2E/DX2                !
 ! A41   A(18,21,22)           109.4712         estimate D2E/DX2                !
 ! A42   A(18,21,23)           109.4712         estimate D2E/DX2                !
 ! A43   A(18,21,24)           109.4712         estimate D2E/DX2                !
 ! A44   A(22,21,23)           109.4712         estimate D2E/DX2                !
 ! A45   A(22,21,24)           109.4713         estimate D2E/DX2                !
 ! A46   A(23,21,24)           109.4712         estimate D2E/DX2                !
 ! A47   A(21,24,25)           109.4712         estimate D2E/DX2                !
 ! A48   A(21,24,26)           109.4712         estimate D2E/DX2                !
 ! A49   A(21,24,27)           109.4712         estimate D2E/DX2                !
 ! A50   A(25,24,26)           109.4712         estimate D2E/DX2                !
 ! A51   A(25,24,27)           109.4713         estimate D2E/DX2                !
 ! A52   A(26,24,27)           109.4712         estimate D2E/DX2                !
 ! A53   A(24,27,28)           109.4712         estimate D2E/DX2                !
 ! A54   A(24,27,29)           109.4712         estimate D2E/DX2                !
 ! A55   A(24,27,30)           109.4712         estimate D2E/DX2                !
 ! A56   A(28,27,29)           109.4713         estimate D2E/DX2                !
 ! A57   A(28,27,30)           109.4712         estimate D2E/DX2                !
 ! A58   A(29,27,30)           109.4712         estimate D2E/DX2                !
 ! A59   A(27,30,31)           109.4712         estimate D2E/DX2                !
 ! A60   A(27,30,32)           109.4712         estimate D2E/DX2                !
 ! A61   A(27,30,33)           109.4712         estimate D2E/DX2                !
 ! A62   A(31,30,32)           109.4713         estimate D2E/DX2                !
 ! A63   A(31,30,33)           109.4712         estimate D2E/DX2                !
 ! A64   A(32,30,33)           109.4712         estimate D2E/DX2                !
 ! A65   A(30,33,34)           109.4712         estimate D2E/DX2                !
 ! A66   A(30,33,35)           109.4712         estimate D2E/DX2                !
 ! A67   A(30,33,36)           109.4712         estimate D2E/DX2                !
 ! A68   A(34,33,35)           109.4712         estimate D2E/DX2                !
 ! A69   A(34,33,36)           109.4713         estimate D2E/DX2                !
 ! A70   A(35,33,36)           109.4712         estimate D2E/DX2                !
 ! A71   A(33,36,37)           109.4712         estimate D2E/DX2                !
 ! A72   A(33,36,38)           109.4712         estimate D2E/DX2                !
 ! A73   A(33,36,39)           109.4712         estimate D2E/DX2                !
 ! A74   A(37,36,38)           109.4712         estimate D2E/DX2                !
 ! A75   A(37,36,39)           109.4713         estimate D2E/DX2                !
 ! A76   A(38,36,39)           109.4712         estimate D2E/DX2                !
 ! A77   A(36,39,40)           109.4712         estimate D2E/DX2                !
 ! A78   A(36,39,41)           109.4712         estimate D2E/DX2                !
 ! A79   A(36,39,42)           109.4712         estimate D2E/DX2                !
 ! A80   A(40,39,41)           109.4712         estimate D2E/DX2                !
 ! A81   A(40,39,42)           109.4713         estimate D2E/DX2                !
 ! A82   A(41,39,42)           109.4712         estimate D2E/DX2                !
 ! A83   A(39,42,43)           109.4712         estimate D2E/DX2                !
 ! A84   A(39,42,44)           110.1367         estimate D2E/DX2                !
 ! A85   A(39,42,45)           136.0947         estimate D2E/DX2                !
 ! A86   A(43,42,44)           109.4883         estimate D2E/DX2                !
 ! A87   A(43,42,45)            87.4079         estimate D2E/DX2                !
 ! A88   A(44,42,45)           100.9223         estimate D2E/DX2                !
 ! A89   A(13,46,47)           109.4712         estimate D2E/DX2                !
 ! A90   A(13,46,48)           109.4712         estimate D2E/DX2                !
 ! A91   A(13,46,49)           109.4712         estimate D2E/DX2                !
 ! A92   A(47,46,48)           109.4713         estimate D2E/DX2                !
 ! A93   A(47,46,49)           109.4712         estimate D2E/DX2                !
 ! A94   A(48,46,49)           109.4712         estimate D2E/DX2                !
 ! A95   A(46,49,50)           109.4712         estimate D2E/DX2                !
 ! A96   A(46,49,51)           109.4712         estimate D2E/DX2                !
 ! A97   A(46,49,52)           109.4712         estimate D2E/DX2                !
 ! A98   A(50,49,51)           109.4712         estimate D2E/DX2                !
 ! A99   A(50,49,52)           109.4713         estimate D2E/DX2                !
 ! A100  A(51,49,52)           109.4712         estimate D2E/DX2                !
 ! A101  A(49,52,53)           109.4712         estimate D2E/DX2                !
 ! A102  A(49,52,54)           109.4712         estimate D2E/DX2                !
 ! A103  A(49,52,55)           109.4712         estimate D2E/DX2                !
 ! A104  A(53,52,54)           109.4712         estimate D2E/DX2                !
 ! A105  A(53,52,55)           109.4713         estimate D2E/DX2                !
 ! A106  A(54,52,55)           109.4712         estimate D2E/DX2                !
 ! A107  A(52,55,56)           109.4712         estimate D2E/DX2                !
 ! A108  A(52,55,57)           109.4712         estimate D2E/DX2                !
 ! A109  A(52,55,58)           109.4712         estimate D2E/DX2                !
 ! A110  A(56,55,57)           109.4713         estimate D2E/DX2                !
 ! A111  A(56,55,58)           109.4712         estimate D2E/DX2                !
 ! A112  A(57,55,58)           109.4712         estimate D2E/DX2                !
 ! A113  A(55,58,59)           109.4712         estimate D2E/DX2                !
 ! A114  A(55,58,60)           109.4712         estimate D2E/DX2                !
 ! A115  A(55,58,61)           109.4712         estimate D2E/DX2                !
 ! A116  A(59,58,60)           109.4713         estimate D2E/DX2                !
 ! A117  A(59,58,61)           109.4712         estimate D2E/DX2                !
 ! A118  A(60,58,61)           109.4712         estimate D2E/DX2                !
 ! A119  A(58,61,62)           109.4712         estimate D2E/DX2                !
 ! A120  A(58,61,63)           109.4712         estimate D2E/DX2                !
 ! A121  A(58,61,64)           109.4712         estimate D2E/DX2                !
 ! A122  A(62,61,63)           109.4712         estimate D2E/DX2                !
 ! A123  A(62,61,64)           109.4713         estimate D2E/DX2                !
 ! A124  A(63,61,64)           109.4712         estimate D2E/DX2                !
 ! A125  A(61,64,65)           109.4712         estimate D2E/DX2                !
 ! A126  A(61,64,66)           109.4712         estimate D2E/DX2                !
 ! A127  A(61,64,67)           109.4712         estimate D2E/DX2                !
 ! A128  A(65,64,66)           109.4712         estimate D2E/DX2                !
 ! A129  A(65,64,67)           109.4713         estimate D2E/DX2                !
 ! A130  A(66,64,67)           109.4712         estimate D2E/DX2                !
 ! A131  A(64,67,68)           109.4712         estimate D2E/DX2                !
 ! A132  A(64,67,69)           109.4712         estimate D2E/DX2                !
 ! A133  A(64,67,70)           109.4712         estimate D2E/DX2                !
 ! A134  A(68,67,69)           109.4712         estimate D2E/DX2                !
 ! A135  A(68,67,70)           109.4713         estimate D2E/DX2                !
 ! A136  A(69,67,70)           109.4712         estimate D2E/DX2                !
 ! A137  A(67,70,71)           109.4712         estimate D2E/DX2                !
 ! A138  A(67,70,72)           109.4712         estimate D2E/DX2                !
 ! A139  A(67,70,73)           109.4712         estimate D2E/DX2                !
 ! A140  A(71,70,72)           109.4712         estimate D2E/DX2                !
 ! A141  A(71,70,73)           109.4713         estimate D2E/DX2                !
 ! A142  A(72,70,73)           109.4712         estimate D2E/DX2                !
 ! A143  A(70,73,74)           109.4712         estimate D2E/DX2                !
 ! A144  A(70,73,75)           109.4712         estimate D2E/DX2                !
 ! A145  A(70,73,76)            91.936          estimate D2E/DX2                !
 ! A146  A(74,73,75)           109.4713         estimate D2E/DX2                !
 ! A147  A(74,73,76)           131.2314         estimate D2E/DX2                !
 ! A148  A(75,73,76)           103.1221         estimate D2E/DX2                !
 ! A149  A(4,77,78)            114.9083         estimate D2E/DX2                !
 ! A150  A(4,77,82)             97.9521         estimate D2E/DX2                !
 ! A151  A(4,77,86)            114.8601         estimate D2E/DX2                !
 ! A152  A(78,77,82)           109.4612         estimate D2E/DX2                !
 ! A153  A(78,77,86)           109.4839         estimate D2E/DX2                !
 ! A154  A(82,77,86)           109.4612         estimate D2E/DX2                !
 ! A155  A(77,78,79)           109.4712         estimate D2E/DX2                !
 ! A156  A(77,78,80)           109.4758         estimate D2E/DX2                !
 ! A157  A(77,78,81)           109.4877         estimate D2E/DX2                !
 ! A158  A(79,78,80)           109.4096         estimate D2E/DX2                !
 ! A159  A(79,78,81)           109.4871         estimate D2E/DX2                !
 ! A160  A(80,78,81)           109.4958         estimate D2E/DX2                !
 ! A161  A(77,82,83)           109.4886         estimate D2E/DX2                !
 ! A162  A(77,82,84)           109.4838         estimate D2E/DX2                !
 ! A163  A(77,82,85)           109.4845         estimate D2E/DX2                !
 ! A164  A(83,82,84)           109.5048         estimate D2E/DX2                !
 ! A165  A(83,82,85)           109.4208         estimate D2E/DX2                !
 ! A166  A(84,82,85)           109.4448         estimate D2E/DX2                !
 ! A167  A(77,86,87)           109.4681         estimate D2E/DX2                !
 ! A168  A(77,86,88)           109.4776         estimate D2E/DX2                !
 ! A169  A(77,86,89)           109.4883         estimate D2E/DX2                !
 ! A170  A(87,86,88)           109.4484         estimate D2E/DX2                !
 ! A171  A(87,86,89)           109.466          estimate D2E/DX2                !
 ! A172  A(88,86,89)           109.4788         estimate D2E/DX2                !
 ! A173  A(11,90,91)           119.848          estimate D2E/DX2                !
 ! A174  A(11,90,95)           111.3953         estimate D2E/DX2                !
 ! A175  A(11,90,99)           114.4622         estimate D2E/DX2                !
 ! A176  A(91,90,95)            97.8625         estimate D2E/DX2                !
 ! A177  A(91,90,99)           107.2649         estimate D2E/DX2                !
 ! A178  A(95,90,99)           103.683          estimate D2E/DX2                !
 ! A179  A(90,91,92)           109.485          estimate D2E/DX2                !
 ! A180  A(90,91,93)           109.4426         estimate D2E/DX2                !
 ! A181  A(90,91,94)           109.4661         estimate D2E/DX2                !
 ! A182  A(92,91,93)           109.4547         estimate D2E/DX2                !
 ! A183  A(92,91,94)           109.4949         estimate D2E/DX2                !
 ! A184  A(93,91,94)           109.484          estimate D2E/DX2                !
 ! A185  A(90,95,96)           109.4504         estimate D2E/DX2                !
 ! A186  A(90,95,97)           109.4678         estimate D2E/DX2                !
 ! A187  A(90,95,98)           109.4704         estimate D2E/DX2                !
 ! A188  A(96,95,97)           109.4989         estimate D2E/DX2                !
 ! A189  A(96,95,98)           109.4681         estimate D2E/DX2                !
 ! A190  A(97,95,98)           109.4717         estimate D2E/DX2                !
 ! A191  A(90,99,100)          109.4847         estimate D2E/DX2                !
 ! A192  A(90,99,101)          109.448          estimate D2E/DX2                !
 ! A193  A(90,99,102)          109.4301         estimate D2E/DX2                !
 ! A194  A(100,99,101)         109.5353         estimate D2E/DX2                !
 ! A195  A(100,99,102)         109.48           estimate D2E/DX2                !
 ! A196  A(101,99,102)         109.4492         estimate D2E/DX2                !
 ! D1    D(5,1,2,3)              0.0            estimate D2E/DX2                !
 ! D2    D(5,1,2,6)            179.9517         estimate D2E/DX2                !
 ! D3    D(8,1,2,3)            180.0            estimate D2E/DX2                !
 ! D4    D(8,1,2,6)             -0.0483         estimate D2E/DX2                !
 ! D5    D(2,1,5,4)              0.0            estimate D2E/DX2                !
 ! D6    D(8,1,5,4)            180.0            estimate D2E/DX2                !
 ! D7    D(2,1,8,9)            180.0            estimate D2E/DX2                !
 ! D8    D(2,1,8,12)             0.0387         estimate D2E/DX2                !
 ! D9    D(5,1,8,9)              0.0            estimate D2E/DX2                !
 ! D10   D(5,1,8,12)          -179.9613         estimate D2E/DX2                !
 ! D11   D(1,2,3,4)              0.0            estimate D2E/DX2                !
 ! D12   D(1,2,3,7)            179.9357         estimate D2E/DX2                !
 ! D13   D(6,2,3,4)           -179.948          estimate D2E/DX2                !
 ! D14   D(6,2,3,7)             -0.0123         estimate D2E/DX2                !
 ! D15   D(1,2,6,15)          -179.3864         estimate D2E/DX2                !
 ! D16   D(3,2,6,15)             0.559          estimate D2E/DX2                !
 ! D17   D(2,3,4,5)              0.0            estimate D2E/DX2                !
 ! D18   D(2,3,4,77)           179.9696         estimate D2E/DX2                !
 ! D19   D(7,3,4,5)           -179.9364         estimate D2E/DX2                !
 ! D20   D(7,3,4,77)             0.0332         estimate D2E/DX2                !
 ! D21   D(3,4,5,1)              0.0            estimate D2E/DX2                !
 ! D22   D(77,4,5,1)          -179.9654         estimate D2E/DX2                !
 ! D23   D(3,4,77,78)          -64.1551         estimate D2E/DX2                !
 ! D24   D(3,4,77,82)         -179.9893         estimate D2E/DX2                !
 ! D25   D(3,4,77,86)           64.1948         estimate D2E/DX2                !
 ! D26   D(5,4,77,78)          115.8086         estimate D2E/DX2                !
 ! D27   D(5,4,77,82)           -0.0256         estimate D2E/DX2                !
 ! D28   D(5,4,77,86)         -115.8415         estimate D2E/DX2                !
 ! D29   D(2,6,15,16)          -60.1705         estimate D2E/DX2                !
 ! D30   D(2,6,15,17)           59.8296         estimate D2E/DX2                !
 ! D31   D(2,6,15,18)          179.8295         estimate D2E/DX2                !
 ! D32   D(1,8,9,10)           180.0            estimate D2E/DX2                !
 ! D33   D(1,8,9,13)             0.0            estimate D2E/DX2                !
 ! D34   D(12,8,9,10)           -0.0345         estimate D2E/DX2                !
 ! D35   D(12,8,9,13)          179.9655         estimate D2E/DX2                !
 ! D36   D(1,8,12,11)         -179.9866         estimate D2E/DX2                !
 ! D37   D(9,8,12,11)            0.0457         estimate D2E/DX2                !
 ! D38   D(8,9,10,11)            0.0            estimate D2E/DX2                !
 ! D39   D(8,9,10,14)          180.0            estimate D2E/DX2                !
 ! D40   D(13,9,10,11)         180.0            estimate D2E/DX2                !
 ! D41   D(13,9,10,14)           0.0            estimate D2E/DX2                !
 ! D42   D(8,9,13,46)          137.3871         estimate D2E/DX2                !
 ! D43   D(10,9,13,46)         -42.6129         estimate D2E/DX2                !
 ! D44   D(9,10,11,12)           0.0359         estimate D2E/DX2                !
 ! D45   D(9,10,11,90)         179.9685         estimate D2E/DX2                !
 ! D46   D(14,10,11,12)       -179.9641         estimate D2E/DX2                !
 ! D47   D(14,10,11,90)         -0.0315         estimate D2E/DX2                !
 ! D48   D(10,11,12,8)          -0.0474         estimate D2E/DX2                !
 ! D49   D(90,11,12,8)        -179.9769         estimate D2E/DX2                !
 ! D50   D(10,11,90,91)        129.5663         estimate D2E/DX2                !
 ! D51   D(10,11,90,95)       -117.2167         estimate D2E/DX2                !
 ! D52   D(10,11,90,99)         -0.0002         estimate D2E/DX2                !
 ! D53   D(12,11,90,91)        -50.5105         estimate D2E/DX2                !
 ! D54   D(12,11,90,95)         62.7065         estimate D2E/DX2                !
 ! D55   D(12,11,90,99)        179.923          estimate D2E/DX2                !
 ! D56   D(9,13,46,47)         -44.2358         estimate D2E/DX2                !
 ! D57   D(9,13,46,48)          75.7642         estimate D2E/DX2                !
 ! D58   D(9,13,46,49)        -164.2358         estimate D2E/DX2                !
 ! D59   D(6,15,18,19)         -60.395          estimate D2E/DX2                !
 ! D60   D(6,15,18,20)          59.605          estimate D2E/DX2                !
 ! D61   D(6,15,18,21)         179.605          estimate D2E/DX2                !
 ! D62   D(16,15,18,19)        179.605          estimate D2E/DX2                !
 ! D63   D(16,15,18,20)        -60.395          estimate D2E/DX2                !
 ! D64   D(16,15,18,21)         59.605          estimate D2E/DX2                !
 ! D65   D(17,15,18,19)         59.6049         estimate D2E/DX2                !
 ! D66   D(17,15,18,20)        179.605          estimate D2E/DX2                !
 ! D67   D(17,15,18,21)        -60.3951         estimate D2E/DX2                !
 ! D68   D(15,18,21,22)        179.9252         estimate D2E/DX2                !
 ! D69   D(15,18,21,23)        -60.0748         estimate D2E/DX2                !
 ! D70   D(15,18,21,24)         59.9252         estimate D2E/DX2                !
 ! D71   D(19,18,21,22)         59.9253         estimate D2E/DX2                !
 ! D72   D(19,18,21,23)        179.9253         estimate D2E/DX2                !
 ! D73   D(19,18,21,24)        -60.0748         estimate D2E/DX2                !
 ! D74   D(20,18,21,22)        -60.0748         estimate D2E/DX2                !
 ! D75   D(20,18,21,23)         59.9252         estimate D2E/DX2                !
 ! D76   D(20,18,21,24)        179.9252         estimate D2E/DX2                !
 ! D77   D(18,21,24,25)        -89.104          estimate D2E/DX2                !
 ! D78   D(18,21,24,26)         30.896          estimate D2E/DX2                !
 ! D79   D(18,21,24,27)        150.8959         estimate D2E/DX2                !
 ! D80   D(22,21,24,25)        150.896          estimate D2E/DX2                !
 ! D81   D(22,21,24,26)        -89.104          estimate D2E/DX2                !
 ! D82   D(22,21,24,27)         30.896          estimate D2E/DX2                !
 ! D83   D(23,21,24,25)         30.896          estimate D2E/DX2                !
 ! D84   D(23,21,24,26)        150.896          estimate D2E/DX2                !
 ! D85   D(23,21,24,27)        -89.1041         estimate D2E/DX2                !
 ! D86   D(21,24,27,28)         55.8331         estimate D2E/DX2                !
 ! D87   D(21,24,27,29)        175.8331         estimate D2E/DX2                !
 ! D88   D(21,24,27,30)        -64.1669         estimate D2E/DX2                !
 ! D89   D(25,24,27,28)        -64.1669         estimate D2E/DX2                !
 ! D90   D(25,24,27,29)         55.8331         estimate D2E/DX2                !
 ! D91   D(25,24,27,30)        175.8331         estimate D2E/DX2                !
 ! D92   D(26,24,27,28)        175.8331         estimate D2E/DX2                !
 ! D93   D(26,24,27,29)        -64.1669         estimate D2E/DX2                !
 ! D94   D(26,24,27,30)         55.8331         estimate D2E/DX2                !
 ! D95   D(24,27,30,31)        -43.1715         estimate D2E/DX2                !
 ! D96   D(24,27,30,32)         76.8286         estimate D2E/DX2                !
 ! D97   D(24,27,30,33)       -163.1714         estimate D2E/DX2                !
 ! D98   D(28,27,30,31)       -163.1714         estimate D2E/DX2                !
 ! D99   D(28,27,30,32)        -43.1714         estimate D2E/DX2                !
 ! D100  D(28,27,30,33)         76.8286         estimate D2E/DX2                !
 ! D101  D(29,27,30,31)         76.8285         estimate D2E/DX2                !
 ! D102  D(29,27,30,32)       -163.1715         estimate D2E/DX2                !
 ! D103  D(29,27,30,33)        -43.1715         estimate D2E/DX2                !
 ! D104  D(27,30,33,34)       -175.2594         estimate D2E/DX2                !
 ! D105  D(27,30,33,35)         64.7406         estimate D2E/DX2                !
 ! D106  D(27,30,33,36)        -55.2594         estimate D2E/DX2                !
 ! D107  D(31,30,33,34)         64.7406         estimate D2E/DX2                !
 ! D108  D(31,30,33,35)        -55.2594         estimate D2E/DX2                !
 ! D109  D(31,30,33,36)       -175.2594         estimate D2E/DX2                !
 ! D110  D(32,30,33,34)        -55.2594         estimate D2E/DX2                !
 ! D111  D(32,30,33,35)       -175.2594         estimate D2E/DX2                !
 ! D112  D(32,30,33,36)         64.7406         estimate D2E/DX2                !
 ! D113  D(30,33,36,37)         79.6249         estimate D2E/DX2                !
 ! D114  D(30,33,36,38)        -40.3751         estimate D2E/DX2                !
 ! D115  D(30,33,36,39)       -160.3751         estimate D2E/DX2                !
 ! D116  D(34,33,36,37)       -160.3751         estimate D2E/DX2                !
 ! D117  D(34,33,36,38)         79.6249         estimate D2E/DX2                !
 ! D118  D(34,33,36,39)        -40.3751         estimate D2E/DX2                !
 ! D119  D(35,33,36,37)        -40.3751         estimate D2E/DX2                !
 ! D120  D(35,33,36,38)       -160.3751         estimate D2E/DX2                !
 ! D121  D(35,33,36,39)         79.6249         estimate D2E/DX2                !
 ! D122  D(33,36,39,40)        -55.5664         estimate D2E/DX2                !
 ! D123  D(33,36,39,41)         64.4336         estimate D2E/DX2                !
 ! D124  D(33,36,39,42)       -175.5664         estimate D2E/DX2                !
 ! D125  D(37,36,39,40)         64.4336         estimate D2E/DX2                !
 ! D126  D(37,36,39,41)       -175.5664         estimate D2E/DX2                !
 ! D127  D(37,36,39,42)        -55.5664         estimate D2E/DX2                !
 ! D128  D(38,36,39,40)       -175.5664         estimate D2E/DX2                !
 ! D129  D(38,36,39,41)        -55.5664         estimate D2E/DX2                !
 ! D130  D(38,36,39,42)         64.4336         estimate D2E/DX2                !
 ! D131  D(36,39,42,43)         60.374          estimate D2E/DX2                !
 ! D132  D(36,39,42,44)        -60.0587         estimate D2E/DX2                !
 ! D133  D(36,39,42,45)        167.721          estimate D2E/DX2                !
 ! D134  D(40,39,42,43)        -59.6259         estimate D2E/DX2                !
 ! D135  D(40,39,42,44)        179.9413         estimate D2E/DX2                !
 ! D136  D(40,39,42,45)         47.721          estimate D2E/DX2                !
 ! D137  D(41,39,42,43)       -179.626          estimate D2E/DX2                !
 ! D138  D(41,39,42,44)         59.9413         estimate D2E/DX2                !
 ! D139  D(41,39,42,45)        -72.279          estimate D2E/DX2                !
 ! D140  D(13,46,49,50)         84.3486         estimate D2E/DX2                !
 ! D141  D(13,46,49,51)       -155.6514         estimate D2E/DX2                !
 ! D142  D(13,46,49,52)        -35.6514         estimate D2E/DX2                !
 ! D143  D(47,46,49,50)        -35.6513         estimate D2E/DX2                !
 ! D144  D(47,46,49,51)         84.3487         estimate D2E/DX2                !
 ! D145  D(47,46,49,52)       -155.6513         estimate D2E/DX2                !
 ! D146  D(48,46,49,50)       -155.6514         estimate D2E/DX2                !
 ! D147  D(48,46,49,51)        -35.6514         estimate D2E/DX2                !
 ! D148  D(48,46,49,52)         84.3486         estimate D2E/DX2                !
 ! D149  D(46,49,52,53)         91.4898         estimate D2E/DX2                !
 ! D150  D(46,49,52,54)        -28.5102         estimate D2E/DX2                !
 ! D151  D(46,49,52,55)       -148.5102         estimate D2E/DX2                !
 ! D152  D(50,49,52,53)        -28.5102         estimate D2E/DX2                !
 ! D153  D(50,49,52,54)       -148.5102         estimate D2E/DX2                !
 ! D154  D(50,49,52,55)         91.4898         estimate D2E/DX2                !
 ! D155  D(51,49,52,53)       -148.5102         estimate D2E/DX2                !
 ! D156  D(51,49,52,54)         91.4898         estimate D2E/DX2                !
 ! D157  D(51,49,52,55)        -28.5102         estimate D2E/DX2                !
 ! D158  D(49,52,55,56)       -174.3677         estimate D2E/DX2                !
 ! D159  D(49,52,55,57)        -54.3677         estimate D2E/DX2                !
 ! D160  D(49,52,55,58)         65.6323         estimate D2E/DX2                !
 ! D161  D(53,52,55,56)        -54.3677         estimate D2E/DX2                !
 ! D162  D(53,52,55,57)         65.6323         estimate D2E/DX2                !
 ! D163  D(53,52,55,58)       -174.3677         estimate D2E/DX2                !
 ! D164  D(54,52,55,56)         65.6323         estimate D2E/DX2                !
 ! D165  D(54,52,55,57)       -174.3677         estimate D2E/DX2                !
 ! D166  D(54,52,55,58)        -54.3677         estimate D2E/DX2                !
 ! D167  D(52,55,58,59)        -76.1679         estimate D2E/DX2                !
 ! D168  D(52,55,58,60)         43.8321         estimate D2E/DX2                !
 ! D169  D(52,55,58,61)        163.8321         estimate D2E/DX2                !
 ! D170  D(56,55,58,59)        163.8321         estimate D2E/DX2                !
 ! D171  D(56,55,58,60)        -76.1679         estimate D2E/DX2                !
 ! D172  D(56,55,58,61)         43.8321         estimate D2E/DX2                !
 ! D173  D(57,55,58,59)         43.8321         estimate D2E/DX2                !
 ! D174  D(57,55,58,60)        163.8321         estimate D2E/DX2                !
 ! D175  D(57,55,58,61)        -76.1679         estimate D2E/DX2                !
 ! D176  D(55,58,61,62)        175.2154         estimate D2E/DX2                !
 ! D177  D(55,58,61,63)        -64.7846         estimate D2E/DX2                !
 ! D178  D(55,58,61,64)         55.2154         estimate D2E/DX2                !
 ! D179  D(59,58,61,62)         55.2155         estimate D2E/DX2                !
 ! D180  D(59,58,61,63)        175.2154         estimate D2E/DX2                !
 ! D181  D(59,58,61,64)        -64.7846         estimate D2E/DX2                !
 ! D182  D(60,58,61,62)        -64.7846         estimate D2E/DX2                !
 ! D183  D(60,58,61,63)         55.2154         estimate D2E/DX2                !
 ! D184  D(60,58,61,64)        175.2154         estimate D2E/DX2                !
 ! D185  D(58,61,64,65)        -79.7403         estimate D2E/DX2                !
 ! D186  D(58,61,64,66)         40.2597         estimate D2E/DX2                !
 ! D187  D(58,61,64,67)        160.2597         estimate D2E/DX2                !
 ! D188  D(62,61,64,65)        160.2597         estimate D2E/DX2                !
 ! D189  D(62,61,64,66)        -79.7403         estimate D2E/DX2                !
 ! D190  D(62,61,64,67)         40.2597         estimate D2E/DX2                !
 ! D191  D(63,61,64,65)         40.2597         estimate D2E/DX2                !
 ! D192  D(63,61,64,66)        160.2597         estimate D2E/DX2                !
 ! D193  D(63,61,64,67)        -79.7403         estimate D2E/DX2                !
 ! D194  D(61,64,67,68)         55.564          estimate D2E/DX2                !
 ! D195  D(61,64,67,69)        -64.436          estimate D2E/DX2                !
 ! D196  D(61,64,67,70)        175.564          estimate D2E/DX2                !
 ! D197  D(65,64,67,68)        -64.436          estimate D2E/DX2                !
 ! D198  D(65,64,67,69)        175.564          estimate D2E/DX2                !
 ! D199  D(65,64,67,70)         55.564          estimate D2E/DX2                !
 ! D200  D(66,64,67,68)        175.564          estimate D2E/DX2                !
 ! D201  D(66,64,67,69)         55.564          estimate D2E/DX2                !
 ! D202  D(66,64,67,70)        -64.436          estimate D2E/DX2                !
 ! D203  D(64,67,70,71)        -60.7436         estimate D2E/DX2                !
 ! D204  D(64,67,70,72)         59.2564         estimate D2E/DX2                !
 ! D205  D(64,67,70,73)        179.2564         estimate D2E/DX2                !
 ! D206  D(68,67,70,71)         59.2564         estimate D2E/DX2                !
 ! D207  D(68,67,70,72)        179.2564         estimate D2E/DX2                !
 ! D208  D(68,67,70,73)        -60.7436         estimate D2E/DX2                !
 ! D209  D(69,67,70,71)        179.2564         estimate D2E/DX2                !
 ! D210  D(69,67,70,72)        -60.7436         estimate D2E/DX2                !
 ! D211  D(69,67,70,73)         59.2564         estimate D2E/DX2                !
 ! D212  D(67,70,73,74)         60.5824         estimate D2E/DX2                !
 ! D213  D(67,70,73,75)       -179.4175         estimate D2E/DX2                !
 ! D214  D(67,70,73,76)        -74.7692         estimate D2E/DX2                !
 ! D215  D(71,70,73,74)        -59.4175         estimate D2E/DX2                !
 ! D216  D(71,70,73,75)         60.5825         estimate D2E/DX2                !
 ! D217  D(71,70,73,76)        165.2308         estimate D2E/DX2                !
 ! D218  D(72,70,73,74)       -179.4176         estimate D2E/DX2                !
 ! D219  D(72,70,73,75)        -59.4175         estimate D2E/DX2                !
 ! D220  D(72,70,73,76)         45.2308         estimate D2E/DX2                !
 ! D221  D(4,77,78,79)          78.8333         estimate D2E/DX2                !
 ! D222  D(4,77,78,80)        -161.2394         estimate D2E/DX2                !
 ! D223  D(4,77,78,81)         -41.1964         estimate D2E/DX2                !
 ! D224  D(82,77,78,79)       -172.149          estimate D2E/DX2                !
 ! D225  D(82,77,78,80)        -52.2217         estimate D2E/DX2                !
 ! D226  D(82,77,78,81)         67.8214         estimate D2E/DX2                !
 ! D227  D(86,77,78,79)        -52.1598         estimate D2E/DX2                !
 ! D228  D(86,77,78,80)         67.7675         estimate D2E/DX2                !
 ! D229  D(86,77,78,81)       -172.1894         estimate D2E/DX2                !
 ! D230  D(4,77,82,83)         -60.1295         estimate D2E/DX2                !
 ! D231  D(4,77,82,84)          59.93           estimate D2E/DX2                !
 ! D232  D(4,77,82,85)         179.9135         estimate D2E/DX2                !
 ! D233  D(78,77,82,83)        179.8451         estimate D2E/DX2                !
 ! D234  D(78,77,82,84)        -60.0955         estimate D2E/DX2                !
 ! D235  D(78,77,82,85)         59.888          estimate D2E/DX2                !
 ! D236  D(86,77,82,83)         59.8419         estimate D2E/DX2                !
 ! D237  D(86,77,82,84)        179.9014         estimate D2E/DX2                !
 ! D238  D(86,77,82,85)        -60.1151         estimate D2E/DX2                !
 ! D239  D(4,77,86,87)         164.2095         estimate D2E/DX2                !
 ! D240  D(4,77,86,88)         -75.8164         estimate D2E/DX2                !
 ! D241  D(4,77,86,89)          44.2073         estimate D2E/DX2                !
 ! D242  D(78,77,86,87)        -64.7717         estimate D2E/DX2                !
 ! D243  D(78,77,86,88)         55.2024         estimate D2E/DX2                !
 ! D244  D(78,77,86,89)        175.2261         estimate D2E/DX2                !
 ! D245  D(82,77,86,87)         55.2175         estimate D2E/DX2                !
 ! D246  D(82,77,86,88)        175.1916         estimate D2E/DX2                !
 ! D247  D(82,77,86,89)        -64.7847         estimate D2E/DX2                !
 ! D248  D(11,90,91,92)         80.7584         estimate D2E/DX2                !
 ! D249  D(11,90,91,93)       -159.2709         estimate D2E/DX2                !
 ! D250  D(11,90,91,94)        -39.2759         estimate D2E/DX2                !
 ! D251  D(95,90,91,92)        -39.4951         estimate D2E/DX2                !
 ! D252  D(95,90,91,93)         80.4757         estimate D2E/DX2                !
 ! D253  D(95,90,91,94)       -159.5294         estimate D2E/DX2                !
 ! D254  D(99,90,91,92)       -146.5315         estimate D2E/DX2                !
 ! D255  D(99,90,91,93)        -26.5608         estimate D2E/DX2                !
 ! D256  D(99,90,91,94)         93.4342         estimate D2E/DX2                !
 ! D257  D(11,90,95,96)        164.9842         estimate D2E/DX2                !
 ! D258  D(11,90,95,97)        -74.9968         estimate D2E/DX2                !
 ! D259  D(11,90,95,98)         45.0012         estimate D2E/DX2                !
 ! D260  D(91,90,95,96)        -68.5946         estimate D2E/DX2                !
 ! D261  D(91,90,95,97)         51.4244         estimate D2E/DX2                !
 ! D262  D(91,90,95,98)        171.4224         estimate D2E/DX2                !
 ! D263  D(99,90,95,96)         41.4029         estimate D2E/DX2                !
 ! D264  D(99,90,95,97)        161.4219         estimate D2E/DX2                !
 ! D265  D(99,90,95,98)        -78.5801         estimate D2E/DX2                !
 ! D266  D(11,90,99,100)       -58.6701         estimate D2E/DX2                !
 ! D267  D(11,90,99,101)        61.4024         estimate D2E/DX2                !
 ! D268  D(11,90,99,102)      -178.6639         estimate D2E/DX2                !
 ! D269  D(91,90,99,100)       165.7709         estimate D2E/DX2                !
 ! D270  D(91,90,99,101)       -74.1565         estimate D2E/DX2                !
 ! D271  D(91,90,99,102)        45.7771         estimate D2E/DX2                !
 ! D272  D(95,90,99,100)        62.8797         estimate D2E/DX2                !
 ! D273  D(95,90,99,101)      -177.0478         estimate D2E/DX2                !
 ! D274  D(95,90,99,102)       -57.1141         estimate D2E/DX2                !
 --------------------------------------------------------------------------------
 Trust Radius=3.00D-01 FncErr=1.00D-07 GrdErr=1.00D-06 EigMax=2.50D+02 EigMin=1.00D-04
 Number of steps in this run=    583 maximum allowed number of steps=    612.
 GradGradGradGradGradGradGradGradGradGradGradGradGradGradGradGradGradGrad

 Leave Link  103 at Mon Jan 20 17:12:57 2020, MaxMem=  6710886400 cpu:               0.2 elap:               0.0
 (Enter /apps/gaussian/g16-a03/l202.exe)
 Stoichiometry    C34H62O2S2Sn2
 Framework group  C1[X(C34H62O2S2Sn2)]
 Deg. of freedom   300
 Full point group                 C1      NOp   1
 Largest Abelian subgroup         C1      NOp   1
 Largest concise Abelian subgroup C1      NOp   1
                         Standard orientation:                         
 ---------------------------------------------------------------------
 Center     Atomic      Atomic             Coordinates (Angstroms)
 Number     Number       Type             X           Y           Z
 ---------------------------------------------------------------------
      1          6           0        0.122722   -0.637299   -0.041919
      2          6           0        1.413699   -1.075882    0.207058
      3          6           0        1.562196   -2.491727    0.202064
      4          6           0        0.384202   -3.130703   -0.050721
      5         16           0       -0.924636   -2.028567   -0.286947
      6          8           0        2.404040   -0.164523    0.427772
      7          1           0        2.494935   -3.007830    0.376024
      8          6           0       -0.360380    0.722374   -0.105640
      9          6           0       -1.651356    1.160957   -0.354617
     10          6           0       -1.800825    2.576671   -0.349822
     11          6           0       -0.621860    3.215778   -0.096838
     12         16           0        0.687043    2.114657    0.138406
     13          8           0       -2.641500    0.249622   -0.576311
     14          1           0       -2.732528    3.093920   -0.524565
     15          6           0        3.732887   -0.634011    0.669941
     16          1           0        3.739131   -1.252230    1.543248
     17          1           0        4.069283   -1.202442   -0.171858
     18          6           0        4.670806    0.568274    0.885388
     19          1           0        4.669864    1.182824    0.009473
     20          1           0        4.330440    1.140557    1.722970
     21          6           0        6.099954    0.062407    1.156007
     22          1           0        6.751881    0.897793    1.304411
     23          1           0        6.101132   -0.551082    2.032666
     24          6           0        6.589121   -0.762824   -0.048696
     25          1           0        6.312993   -1.787847    0.085397
     26          1           0        6.140472   -0.386819   -0.944371
     27          6           0        8.121425   -0.653955   -0.157290
     28          1           0        8.567151   -0.961844    0.765441
     29          1           0        8.468577   -1.284523   -0.948977
     30          6           0        8.512574    0.805591   -0.454488
     31          1           0        7.853834    1.207526   -1.195710
     32          1           0        8.436625    1.384812    0.441969
     33          6           0        9.961127    0.853007   -0.975108
     34          1           0       10.260925    1.872135   -1.103168
     35          1           0       10.019501    0.343370   -1.914131
     36          6           0       10.894181    0.167135    0.040072
     37          1           0       10.830831   -0.894456   -0.077878
     38          1           0       10.598454    0.433933    1.033181
     39          6           0       12.344034    0.625171   -0.204322
     40          1           0       12.613773    0.428137   -1.220844
     41          1           0       12.423934    1.674541   -0.011090
     42          6           0       13.290668   -0.143521    0.736208
     43          1           0       13.215588   -1.192416    0.538514
     44          1           0       13.010118    0.062071    1.837748
     45          1           0       14.412676   -0.292806    0.824248
     46          6           0       -3.469494    1.058382    0.263471
     47          1           0       -2.916551    1.355254    1.130086
     48          1           0       -3.782259    1.928298   -0.275345
     49          6           0       -4.706855    0.250051    0.696067
     50          1           0       -4.463253   -0.344427    1.551727
     51          1           0       -5.502854    0.921134    0.942915
     52          6           0       -5.149176   -0.668532   -0.458124
     53          1           0       -4.671296   -1.620773   -0.359293
     54          1           0       -4.872662   -0.225938   -1.392228
     55          6           0       -6.677262   -0.853604   -0.410145
     56          1           0       -6.973404   -1.568002   -1.149628
     57          1           0       -6.963814   -1.204145    0.559344
     58          6           0       -7.366704    0.494042   -0.693203
     59          1           0       -7.305344    1.115502    0.175659
     60          1           0       -6.879502    0.978587   -1.513418
     61          6           0       -8.845662    0.249867   -1.046278
     62          1           0       -9.344720    1.189352   -1.161208
     63          1           0       -8.907607   -0.301200   -1.961367
     64          6           0       -9.517193   -0.553340    0.083104
     65          1           0       -9.269065   -1.589090   -0.019633
     66          1           0       -9.170325   -0.195710    1.030038
     67          6           0      -11.045072   -0.380561   -0.002525
     68          1           0      -11.382205   -0.665827   -0.977135
     69          1           0      -11.298862    0.643255    0.177172
     70          6           0      -11.722463   -1.270743    1.055926
     71          1           0      -11.479187   -2.295728    0.868517
     72          1           0      -11.375516   -0.994088    2.029574
     73          6           0      -13.249334   -1.083887    0.982781
     74          1           0      -13.597616   -1.370170    0.012399
     75          1           0      -13.719374   -1.694715    1.724974
     76          1           0      -13.192445   -0.144448    1.448311
     77         50           0        0.378773   -5.269569   -0.105520
     78          6           0        1.566567   -6.146102   -1.696141
     79          1           0        2.600189   -6.128803   -1.420379
     80          1           0        1.257858   -7.158543   -1.855645
     81          1           0        1.427886   -5.584677   -2.595876
     82          6           0       -1.728934   -5.553481   -0.536643
     83          1           0       -2.315027   -5.123776    0.248804
     84          1           0       -1.970826   -5.077612   -1.464356
     85          1           0       -1.941071   -6.600171   -0.607154
     86          6           0        0.867633   -6.231659    1.777201
     87          1           0        0.577953   -7.261442    1.737418
     88          1           0        1.921933   -6.164410    1.949178
     89          1           0        0.344906   -5.744995    2.572720
     90         50           0       -0.488917    5.350626   -0.018520
     91          6           0        0.464704    6.312019    1.677575
     92          1           0        1.526533    6.287753    1.550872
     93          1           0        0.136550    7.328555    1.741676
     94          1           0        0.200377    5.794370    2.575858
     95          6           0        0.819216    6.119823   -1.569896
     96          1           0        0.665018    7.173428   -1.675985
     97          1           0        1.837676    5.933274   -1.302205
     98          1           0        0.598830    5.631988   -2.496612
     99          6           0       -2.365459    6.381333   -0.371764
    100          1           0       -2.745813    6.110062   -1.333499
    101          1           0       -3.071562    6.104724    0.383359
    102          1           0       -2.202905    7.438435   -0.337502
 ---------------------------------------------------------------------
 Rotational constants (GHZ):           0.0445263           0.0216348           0.0148812
 Leave Link  202 at Mon Jan 20 17:12:57 2020, MaxMem=  6710886400 cpu:               0.1 elap:               0.0
 (Enter /apps/gaussian/g16-a03/l301.exe)
 Standard basis: LANL2DZ (5D, 7F)
 Ernie: Thresh=  0.10000D-02 Tol=  0.10000D-05 Strict=F.
 There are   480 symmetry adapted cartesian basis functions of A   symmetry.
 There are   480 symmetry adapted basis functions of A   symmetry.
   480 basis functions,  1196 primitive gaussians,   480 cartesian basis functions
   151 alpha electrons      151 beta electrons
       nuclear repulsion energy      3955.1213265403 Hartrees.



 Warning!  S  atom    5 may be hypervalent but has no d functions.
 Warning!  S  atom   12 may be hypervalent but has no d functions.



 IExCor=  402 DFT=T Ex+Corr=B3LYP ExCW=0 ScaHFX=  0.200000
 ScaDFX=  0.800000  0.720000  1.000000  0.810000 ScalE2=  1.000000  1.000000
 IRadAn=      5 IRanWt=     -1 IRanGd=            0 ICorTp=0 IEmpDi=  4
 NAtoms=  102 NActive=  102 NUniq=  102 SFac= 1.00D+00 NAtFMM=   60 NAOKFM=T Big=T
 Integral buffers will be    131072 words long.
 Raffenetti 2 integral format.
 Two-electron integral symmetry is turned on.
 Leave Link  301 at Mon Jan 20 17:12:57 2020, MaxMem=  6710886400 cpu:               0.6 elap:               0.1
 (Enter /apps/gaussian/g16-a03/l302.exe)
 NPDir=0 NMtPBC=     1 NCelOv=     1 NCel=       1 NClECP=     1 NCelD=      1
         NCelK=      1 NCelE2=     1 NClLst=     1 CellRange=     0.0.
 One-electron integrals computed using PRISM.
 One-electron integral symmetry used in STVInt
   1 Symmetry operations used in ECPInt.
 ECPInt:  NShTT=   51360 NPrTT=  331280 LenC2=   31484 LenP2D=  104331.
 LDataN:  DoStor=T MaxTD1= 4 Len=   56
 NBasis=   480 RedAO= T EigKep=  9.25D-04  NBF=   480
 NBsUse=   480 1.00D-06 EigRej= -1.00D+00 NBFU=   480
 Precomputing XC quadrature grid using
 IXCGrd= 4 IRadAn=           5 IRanWt=          -1 IRanGd=           0 AccXCQ= 0.00D+00.
 Defaulting to unpruned grid for atomic number  50.
 Defaulting to unpruned grid for atomic number  50.
 Generated NRdTot=       0 NPtTot=           0 NUsed=           0 NTot=          32
 NSgBfM=   427   427   427   427   427 MxSgAt=   102 MxSgA2=   102.
 Leave Link  302 at Mon Jan 20 17:13:03 2020, MaxMem=  6710886400 cpu:              45.5 elap:               5.7
[...]
   XY=             -8.8912   XZ=             -1.2153   YZ=              1.2226
 Traceless Quadrupole moment (field-independent basis, Debye-Ang):
   XX=              5.8323   YY=             12.4470   ZZ=            -18.2793
   XY=             -8.8912   XZ=             -1.2153   YZ=              1.2226
 Octapole moment (field-independent basis, Debye-Ang**2):
  XXX=             34.7936  YYY=            213.5723  ZZZ=             17.5389  XYY=            -21.7599
  XXY=             94.8606  XXZ=              4.9926  XZZ=             -8.3153  YZZ=             43.4582
  YYZ=              6.2247  XYZ=              2.8068
 Hexadecapole moment (field-independent basis, Debye-Ang**3):
 XXXX=         -61080.5207 YYYY=         -21225.6087 ZZZZ=          -1676.7894 XXXY=            753.2948
 XXXZ=           -166.6450 YYYX=           1334.5037 YYYZ=             88.4917 ZZZX=             -6.6122
 ZZZY=             54.0308 XXYY=         -13898.8670 XXZZ=         -10498.8998 YYZZ=          -4045.5758
 XXYZ=            133.8234 YYXZ=            -33.8356 ZZXY=            310.0489
 N-N= 3.889568085970D+03 E-N=-1.127024614350D+04  KE= 1.483745221965D+03
 Leave Link  601 at Mon Jan 20 20:53:04 2020, MaxMem=  6710886400 cpu:               1.7 elap:               0.3
 (Enter /apps/gaussian/g16-a03/l602.exe)
 FitSet:  NAtFit=   102 NAtPot=   102 NAtFrz=     0 MDM=   106 TotChg=   0.00000
 UFF atomic radii scaled by 1 / 1.20 used.

 **********************************************************************

            Electrostatic Properties Using The SCF Density

 **********************************************************************

       Atomic Center    1 is at  -0.102553  0.160662  0.130042
       Atomic Center    2 is at   1.016153 -0.671595  0.124399
       Atomic Center    3 is at   0.725675 -2.081611  0.115949
       Atomic Center    4 is at  -0.622653 -2.398622  0.114764
       Atomic Center    5 is at  -1.606801 -0.874850  0.126463
       Atomic Center    6 is at   2.292479 -0.109612  0.130553
       Atomic Center    7 is at   1.502724 -2.838273  0.111389
       Atomic Center    8 is at  -0.149340  1.599842  0.137923
       Atomic Center    9 is at  -1.268262  2.432328  0.142024
       Atomic Center   10 is at  -0.976966  3.842168  0.151815
       Atomic Center   11 is at   0.371785  4.157632  0.154895
       Atomic Center   12 is at   1.355587  2.634217  0.145386
       Atomic Center   13 is at  -2.544978  1.871898  0.137108
       Atomic Center   14 is at  -1.753335  4.599441  0.156670
       Atomic Center   15 is at   3.452363 -1.007371  0.101185
       Atomic Center   16 is at   3.434397 -1.657233  0.990700
       Atomic Center   17 is at   3.398086 -1.634834 -0.799839
       Atomic Center   18 is at   4.701321 -0.123627  0.102502
       Atomic Center   19 is at   4.704952  0.487157 -0.810846
       Atomic Center   20 is at   4.620387  0.570511  0.949595
       Atomic Center   21 is at   6.019118 -0.927179  0.209542
       Atomic Center   22 is at   6.842650 -0.210435  0.329588
       Atomic Center   23 is at   6.005305 -1.539003  1.126669
       Atomic Center   24 is at   6.311877 -1.840449 -1.005068
       Atomic Center   25 is at   5.502350 -2.578247 -1.113072
       Atomic Center   26 is at   6.301880 -1.230698 -1.923240
       Atomic Center   27 is at   7.657359 -2.599343 -0.910876
       Atomic Center   28 is at   7.669381 -3.192079  0.016418
       Atomic Center   29 is at   7.716509 -3.320682 -1.741657
       Atomic Center   30 is at   8.905448 -1.686565 -0.968420
       Atomic Center   31 is at   8.806782 -1.015756 -1.837154
       Atomic Center   32 is at   8.940984 -1.040609 -0.078120
       Atomic Center   33 is at  10.242607 -2.456849 -1.079772
       Atomic Center   34 is at  11.058120 -1.733197 -1.238103
       Atomic Center   35 is at  10.218516 -3.097851 -1.976264
       Atomic Center   36 is at  10.585602 -3.322199  0.154212
       Atomic Center   37 is at   9.823064 -4.103950  0.288952
       Atomic Center   38 is at  10.550501 -2.692936  1.058804
       Atomic Center   39 is at  11.974553 -3.990290  0.054039
       Atomic Center   40 is at  12.013709 -4.607829 -0.857026
       Atomic Center   41 is at  12.742744 -3.210612 -0.067298
       Atomic Center   42 is at  12.315316 -4.861776  1.281130
       Atomic Center   43 is at  11.580842 -5.669552  1.406295
       Atomic Center   44 is at  12.311752 -4.262539  2.202248
       Atomic Center   45 is at  13.307546 -5.322160  1.183607
       Atomic Center   46 is at  -3.704271  2.773048  0.166353
       Atomic Center   47 is at  -3.656419  3.387983  1.077938
       Atomic Center   48 is at  -3.671735  3.434278 -0.714109
       Atomic Center   49 is at  -4.965084  1.908355  0.154742
       Atomic Center   50 is at  -4.920472  1.215422  1.007108
       Atomic Center   51 is at  -5.825770  2.572953  0.321423
       Atomic Center   52 is at  -5.148319  1.109059 -1.154481
       Atomic Center   53 is at  -4.226268  0.545392 -1.345394
       Atomic Center   54 is at  -5.273385  1.811886 -1.994961
       Atomic Center   55 is at  -6.346418  0.132291 -1.122441
       Atomic Center   56 is at  -6.336367 -0.469732 -2.045056
       Atomic Center   57 is at  -6.206445 -0.573175 -0.289625
       Atomic Center   58 is at  -7.726269  0.821794 -1.002865
       Atomic Center   59 is at  -7.805774  1.337478 -0.033286
       Atomic Center   60 is at  -7.794189  1.602273 -1.778190
       Atomic Center   61 is at  -8.927260 -0.141660 -1.155082
       Atomic Center   62 is at  -9.857183  0.448432 -1.187365
       Atomic Center   63 is at  -8.855031 -0.660050 -2.125189
       Atomic Center   64 is at  -9.049150 -1.190427 -0.026253
       Atomic Center   65 is at  -8.159956 -1.838310 -0.019758
       Atomic Center   66 is at  -9.064471 -0.672510  0.946949
       Atomic Center   67 is at -10.310843 -2.071473 -0.153841
       Atomic Center   68 is at -10.301538 -2.581637 -1.130894
       Atomic Center   69 is at -11.206248 -1.428672 -0.149113
       Atomic Center   70 is at -10.436639 -3.125544  0.967965
       Atomic Center   71 is at  -9.542098 -3.767790  0.962807
       Atomic Center   72 is at -10.446013 -2.615564  1.943941
       Atomic Center   73 is at -11.699576 -4.002289  0.833682
       Atomic Center   74 is at -11.699846 -4.547781 -0.120265
       Atomic Center   75 is at -11.763549 -4.741315  1.643498
       Atomic Center   76 is at -12.610124 -3.387946  0.866385
       Atomic Center   77 is at  -1.497234 -4.338488  0.106200
       Atomic Center   78 is at  -2.756608 -4.543510 -1.614607
       Atomic Center   79 is at  -2.178125 -4.390642 -2.534104
       Atomic Center   80 is at  -3.208586 -5.543348 -1.649576
       Atomic Center   81 is at  -3.563861 -3.800525 -1.591310
       Atomic Center   82 is at  -2.655295 -4.608573  1.888294
       Atomic Center   83 is at  -2.024080 -4.491014  2.777808
       Atomic Center   84 is at  -3.460306 -3.864675  1.939949
       Atomic Center   85 is at  -3.107142 -5.608831  1.911426
       Atomic Center   86 is at   0.132774 -5.728305  0.034693
       Atomic Center   87 is at  -0.243970 -6.759162  0.025358
       Atomic Center   88 is at   0.734337 -5.576402 -0.870424
       Atomic Center   89 is at   0.783989 -5.611212  0.910198
       Atomic Center   90 is at   1.248574  6.096525  0.168505
       Atomic Center   91 is at   2.471836  6.312381  1.913945
       Atomic Center   92 is at   3.276540  5.566333  1.913677
       Atomic Center   93 is at   2.926555  7.310935  1.950157
       Atomic Center   94 is at   1.873528  6.169074  2.822233
       Atomic Center   95 is at   2.444959  6.350715 -1.590434
       Atomic Center   96 is at   2.898500  7.350233 -1.612178
       Atomic Center   97 is at   3.249954  5.605508 -1.618275
       Atomic Center   98 is at   1.832939  6.226328 -2.492352
       Atomic Center   99 is at  -0.379890  7.489706  0.195725
       Atomic Center  100 is at  -1.013625  7.366016 -0.691600
       Atomic Center  101 is at  -0.999858  7.346827  1.089847
       Atomic Center  102 is at  -0.001444  8.519952  0.203806
    4009 points will be used for fitting atomic charges
 Fitting point charges to electrostatic potential
 Charges from ESP fit, RMS=   0.00137 RRMS=   0.14646:
 ESP charges:
               1
     1  C   -0.245412
     2  C    0.675900
     3  C   -0.475209
     4  C   -0.314802
     5  S   -0.015274
     6  O   -0.545182
     7  H    0.185514
     8  C   -0.064464
     9  C    0.508768
    10  C   -0.406702
    11  C   -0.326146
    12  S   -0.057785
    13  O   -0.375846
    14  H    0.178016
    15  C    0.270388
    16  H    0.040654
    17  H    0.039525
    18  C   -0.167577
    19  H    0.088010
    20  H    0.083477
    21  C   -0.132074
    22  H    0.062867
    23  H    0.063607
    24  C   -0.163973
    25  H    0.044583
    26  H    0.077498
    27  C   -0.095453
    28  H    0.051943
    29  H    0.059708
    30  C    0.003205
    31  H    0.039333
    32  H    0.036608
    33  C   -0.275486
    34  H    0.063788
    35  H    0.074577
    36  C    0.045291
    37  H    0.003732
    38  H    0.021905
    39  C    0.143345
    40  H   -0.009275
    41  H   -0.004140
    42  C   -0.429828
    43  H    0.102654
    44  H    0.096191
    45  H    0.109109
    46  C   -0.006329
    47  H    0.090274
    48  H    0.091934
    49  C   -0.063968
    50  H    0.062326
    51  H    0.027043
    52  C   -0.036955
    53  H    0.019205
    54  H    0.041536
    55  C   -0.111244
    56  H    0.057428
    57  H    0.057887
    58  C   -0.084549
    59  H    0.053389
    60  H    0.040793
    61  C   -0.112385
    62  H    0.031286
    63  H    0.045675
    64  C    0.007092
    65  H   -0.001079
    66  H    0.013708
    67  C   -0.080074
    68  H    0.023154
    69  H    0.027625
    70  C    0.201035
    71  H   -0.020028
    72  H   -0.026065
    73  C   -0.422601
    74  H    0.098704
    75  H    0.101310
    76  H    0.098717
    77  Sn   1.200977
    78  C   -0.786812
    79  H    0.164564
    80  H    0.165816
    81  H    0.180628
    82  C   -0.832829
    83  H    0.177695
    84  H    0.189483
    85  H    0.179057
    86  C   -0.851111
    87  H    0.183861
    88  H    0.190791
    89  H    0.191955
    90  Sn   1.200183
    91  C   -0.810934
    92  H    0.189507
    93  H    0.169964
    94  H    0.172736
    95  C   -0.810168
    96  H    0.171247
    97  H    0.186960
    98  H    0.172468
    99  C   -0.855497
   100  H    0.191224
   101  H    0.191183
   102  H    0.186640
 Sum of ESP charges =  -0.00000
 ESP charges with hydrogens summed into heavy atoms:
               1
     1  C   -0.245412
     2  C    0.675900
     3  C   -0.289696
     4  C   -0.314802
     5  S   -0.015274
     6  O   -0.545182
     8  C   -0.064464
     9  C    0.508768
    10  C   -0.228686
    11  C   -0.326146
    12  S   -0.057785
    13  O   -0.375846
    15  C    0.350567
    18  C    0.003910
    21  C   -0.005600
    24  C   -0.041892
    27  C    0.016198
    30  C    0.079146
    33  C   -0.137121
    36  C    0.070927
    39  C    0.129930
    42  C   -0.121874
    46  C    0.175879
    49  C    0.025402
    52  C    0.023786
    55  C    0.004071
    58  C    0.009634
    61  C   -0.035424
    64  C    0.019721
    67  C   -0.029295
    70  C    0.154942
    73  C   -0.123870
    77  Sn   1.200977
    78  C   -0.275805
    82  C   -0.286594
    86  C   -0.284503
    90  Sn   1.200183
    91  C   -0.278728
    95  C   -0.279493
    99  C   -0.286450
 Charge=  -0.00000 Dipole=     0.4650    -0.0958    -0.1586 Tot=     0.5006
 -----------------------------------------------------------------

              Electrostatic Properties (Atomic Units)

 -----------------------------------------------------------------
    Center     Electric         -------- Electric Field --------
               Potential          X             Y             Z
 -----------------------------------------------------------------
    1 Atom    -14.734480
    2 Atom    -14.701570
    3 Atom    -14.758330
    4 Atom    -14.763838
    5 Atom     -3.658180
    6 Atom    -22.333843
    7 Atom     -1.091660
    8 Atom    -14.734866
    9 Atom    -14.701654
   10 Atom    -14.758996
   11 Atom    -14.764499
   12 Atom     -3.658905
   13 Atom    -22.334138
   14 Atom     -1.092290
   15 Atom    -14.705053
   16 Atom     -1.105361
   17 Atom     -1.105626
   18 Atom    -14.765231
   19 Atom     -1.126500
   20 Atom     -1.126411
   21 Atom    -14.763922
   22 Atom     -1.126785
   23 Atom     -1.125490
   24 Atom    -14.766849
   25 Atom     -1.127702
   26 Atom     -1.128648
   27 Atom    -14.769668
   28 Atom     -1.131140
   29 Atom     -1.130971
   30 Atom    -14.770925
   31 Atom     -1.132263
   32 Atom     -1.132489
   33 Atom    -14.771546
   34 Atom     -1.133496
   35 Atom     -1.133400
   36 Atom    -14.773096
   37 Atom     -1.134286
   38 Atom     -1.133685
   39 Atom    -14.769287
   40 Atom     -1.133968
   41 Atom     -1.134203
   42 Atom    -14.777897
   43 Atom     -1.128007
   44 Atom     -1.128083
   45 Atom     -1.127219
   46 Atom    -14.704058
   47 Atom     -1.104950
   48 Atom     -1.104834
   49 Atom    -14.765457
   50 Atom     -1.125656
   51 Atom     -1.118775
   52 Atom    -14.776403
   53 Atom     -1.141791
   54 Atom     -1.136093
   55 Atom    -14.775610
   56 Atom     -1.136850
   57 Atom     -1.137268
   58 Atom    -14.774462
   59 Atom     -1.135519
   60 Atom     -1.135476
   61 Atom    -14.774439
   62 Atom     -1.136353
   63 Atom     -1.136328
   64 Atom    -14.775880
   65 Atom     -1.137069
   66 Atom     -1.136280
   67 Atom    -14.775290
   68 Atom     -1.136417
   69 Atom     -1.136593
   70 Atom    -14.771301
   71 Atom     -1.136215
   72 Atom     -1.136229
   73 Atom    -14.779745
   74 Atom     -1.129960
   75 Atom     -1.129094
   76 Atom     -1.129957
   77 Atom     -1.625880
   78 Atom    -14.790449
   79 Atom     -1.114369
   80 Atom     -1.112741
   81 Atom     -1.113480
   82 Atom    -14.790597
   83 Atom     -1.114474
   84 Atom     -1.113691
   85 Atom     -1.112871
   86 Atom    -14.785867
   87 Atom     -1.108361
   88 Atom     -1.108944
   89 Atom     -1.108805
   90 Atom     -1.626453
   91 Atom    -14.791060
   92 Atom     -1.114146
   93 Atom     -1.113338
   94 Atom     -1.114956
   95 Atom    -14.791074
   96 Atom     -1.113343
   97 Atom     -1.114172
   98 Atom     -1.114952
   99 Atom    -14.786389
  100 Atom     -1.109378
  101 Atom     -1.109421
  102 Atom     -1.108866
 -----------------------------------------------------------------
 Leave Link  602 at Mon Jan 20 20:53:04 2020, MaxMem=  6710886400 cpu:               4.0 elap:               0.5
 (Enter /apps/gaussian/g16-a03/l9999.exe)
 1\1\GINC-CX1-141-15-1\FOpt\RB3LYP\LANL2DZ\C34H62O2S2Sn2\NS5018\20-Jan-
 2020\0\\#p opt pop=MKUFF b3lyp/lanl2dz\\OBT_1m_14sc_Sn_opt.gjf\\0,1\C,
 0.0184721838,-0.5823090839,-0.2116358992\C,1.1323739176,0.2326445909,-
 0.013498025\C,0.8740966587,1.6466204945,-0.0944828463\C,-0.4433014551,
 1.9840522731,-0.3573314595\S,-1.4379294408,0.4757086868,-0.5191306503\
 O,2.3750876966,-0.3486766536,0.236699672\H,1.6512935298,2.3911932606,0
 .0394593908\C,-0.055020544,-2.0202804624,-0.1935123926\C,-1.1694319976
 ,-2.8354175453,-0.390172786\C,-0.9100937991,-4.2492673449,-0.310352831
 2\C,0.4081093398,-4.5852109104,-0.0493213639\S,1.4028063176,-3.0772792
 115,0.1102715041\O,-2.4123249868,-2.2556765324,-0.6416220269\H,-1.6865
 790568,-4.9944687346,-0.4444409059\C,3.5262339985,0.5317728845,0.46437
 01242\H,3.6904311335,1.1570851433,-0.4277640611\H,3.3147290218,1.18456
 96464,1.3232188837\C,4.7346684537,-0.370600035,0.7218817048\H,4.552667
 7209,-0.9559790539,1.6337384136\H,4.80186943,-1.086493162,-0.108133678
 3\C,6.0647984663,0.4095260931,0.8479726129\H,6.8815080925,-0.322717932
 4,0.9040377255\H,6.2375412584,0.995995681,-0.0695540816\C,6.1402521065
 ,1.3513385446,2.0736732043\H,5.3400005988,2.104080278,2.0079447394\H,5
 .9439806084,0.7673324258,2.9876484624\C,7.4942210272,2.086759909,2.218
 715519\H,7.6938671384,2.6534776721,1.2965837509\H,7.4092789164,2.82972
 37797,3.0279227647\C,8.6900517808,1.1570025258,2.5345328688\H,8.414882
 7433,0.511958222,3.3846026269\H,8.8807527889,0.4863021899,1.6830929888
 \C,9.9970952982,1.9095968295,2.8794517866\H,10.7529939259,1.1782388415
 ,3.2073752722\H,9.816354455,2.5753421094,3.7392651252\C,10.5853113234,
 2.7353025384,1.7126590053\H,9.8781134498,3.5245737867,1.4165588418\H,1
 0.7097199901,2.0819703149,0.8333588424\C,11.943253061,3.3846577647,2.0
 589205059\H,11.8213610233,4.0263895923,2.9456288432\H,12.6585838692,2.
 5970038855,2.3428918527\C,12.5280942537,4.2167205825,0.8983210446\H,11
 .8471544961,5.0318397431,0.6163247696\H,12.6872017425,3.592462805,0.00
 80716613\H,13.4929075177,4.6644439942,1.1715698463\C,-3.5629832267,-3.
 1395205954,-0.8689779631\H,-3.3555297132,-3.7799892935,-1.7397163898\H
 ,-3.711389972,-3.776667539,0.0173164319\C,-4.7853920712,-2.2557257221,
 -1.1181799799\H,-4.565942228,-1.5872930711,-1.9629970022\H,-5.61208194
 57,-2.9114708664,-1.4293630811\C,-5.1974394927,-1.4179720487,0.1126326
 601\H,-4.3171451456,-0.8633751645,0.46170275\H,-5.4938118289,-2.095393
 8888,0.9307257985\C,-6.3477426292,-0.4243149674,-0.1701938772\H,-6.500
 7093296,0.2026701307,0.7226905087\H,-6.0381374683,0.2557299466,-0.9779
 946918\C,-7.6935034888,-1.0957450377,-0.5332521521\H,-7.5980648681,-1.
 6366683444,-1.4875207111\H,-7.9229892928,-1.8534460175,0.2336336581\C,
 -8.881862623,-0.1102752979,-0.6354659392\H,-9.8127506494,-0.6850165901
 ,-0.7663366562\H,-8.9844887687,0.4334776199,0.3178715835\C,-8.76623747
 1,0.9087357141,-1.7918699224\H,-7.8790537385,1.5425701878,-1.644829196
 \H,-8.6071505955,0.3645030858,-2.7374368364\C,-10.0111758206,1.8120842
 26,-1.9278071506\H,-10.1770554898,2.3487663957,-0.9794171825\H,-10.902
 2245611,1.1831153831,-2.0871670756\C,-9.9006096635,2.8366503201,-3.078
 1897426\H,-9.0105025721,3.4650899654,-2.9185582959\H,-9.7349995449,2.3
 00183376,-4.0255397802\C,-11.1481269858,3.735902969,-3.2076883442\H,-1
 1.3183091643,4.3074050127,-2.28465007\H,-11.0424080701,4.453231571,-4.
 0325014336\H,-12.0481602335,3.1348376336,-3.3980705393\Sn,-1.264280778
 8,3.9365182747,-0.5620536452\C,-2.8227734342,4.2080273161,0.882458895\
 H,-2.4323953591,4.0717472211,1.8985883313\H,-3.2528974571,5.2152195257
 ,0.8067003795\H,-3.6257895634,3.4770686295,0.7240543155\C,-2.057623934
 2,4.1750284874,-2.5378147092\H,-1.2716602916,4.0234087037,-3.287987735
 5\H,-2.8530789181,3.442342205,-2.7236035124\H,-2.476591354,5.18103827,
 -2.6705816323\C,0.3503019215,5.3027801081,-0.2155235834\H,-0.000481043
 9,6.339123805,-0.3028855484\H,0.7660839638,5.1667173317,0.7908570654\H
 ,1.1532509781,5.1517071666,-0.9481569444\Sn,1.2322338185,-6.5368772731
 ,0.1508447941\C,2.759730048,-6.8193424472,-1.3244482176\H,3.5646743358
 ,-6.0859189659,-1.1892044481\H,3.1928073493,-7.8253279271,-1.249420452
 2\H,2.3475719575,-6.6920088702,-2.3331144165\C,2.0679098085,-6.7607220
 867,2.1107830271\H,2.4888180618,-7.7660571053,2.2424913964\H,2.8678918
 466,-6.0273830286,2.2731642975\H,1.2985738583,-6.6022282923,2.87661483
 12\C,-0.3893016853,-7.9053049184,-0.1518442338\H,-1.1771998989,-7.7475
 784875,0.5955532219\H,-0.8254174785,-7.7776777817,-1.150715677\H,-0.03
 70731519,-8.9410294599,-0.0629431129\\Version=ES64L-G16RevA.03\State=1
 -A\HF=-1510.147231\RMSD=4.666e-09\RMSF=9.607e-07\Dipole=0.1706387,0.04
 35857,0.0811587\Quadrupole=3.6119055,9.0835056,-12.6954111,6.5319296,4
 .063389,1.537594\PG=C01 [X(C34H62O2S2Sn2)]\\@


 ARTHROPOD AXIOM: A COMPUTER SYSTEM IS LIKE A SPIDER'S WEB.
 YOU CANNOT PULL ON ONE END WITHOUT MAKING THE OTHER END MOVE.
     -- GREG WETTSTEIN
 Job cpu time:       1 days  5 hours 13 minutes 53.8 seconds.
 Elapsed time:       0 days  3 hours 39 minutes 54.2 seconds.
 File lengths (MBytes):  RWF=    154 Int=      0 D2E=      0 Chk=     25 Scr=      1
 Normal termination of Gaussian 16 at Mon Jan 20 20:53:04 2020.
