 Entering Gaussian System, Link 0=g16
 Input=OBT_1m_14sc_Sn_pop.gjf
 Output=OBT_1m_14sc_Sn_pop.log
 Initial command:
 /apps/gaussian/g16-a03/l1.exe "/tmp/pbs.969827.pbs/Gau-11762.inp" -scrdir="/tmp/pbs.969827.pbs/"
 Entering Link 1 = /apps/gaussian/g16-a03/l1.exe PID=     11763.
  
 Copyright (c) 1988,1990,1992,1993,1995,1998,2003,2009,2016,
            Gaussian, Inc.  All Rights Reserved.
  
 This is part of the Gaussian(R) 16 program.  It is based on
 the Gaussian(R) 09 system (copyright 2009, Gaussian, Inc.),
 the Gaussian(R) 03 system (copyright 2003, Gaussian, Inc.),
 the Gaussian(R) 98 system (copyright 1998, Gaussian, Inc.),
 the Gaussian(R) 94 system (copyright 1995, Gaussian, Inc.),
 the Gaussian 92(TM) system (copyright 1992, Gaussian, Inc.),
 the Gaussian 90(TM) system (copyright 1990, Gaussian, Inc.),
 the Gaussian 88(TM) system (copyright 1988, Gaussian, Inc.),
 the Gaussian 86(TM) system (copyright 1986, Carnegie Mellon
 University), and the Gaussian 82(TM) system (copyright 1983,
 Carnegie Mellon University). Gaussian is a federally registered
 trademark of Gaussian, Inc.
  
 This software contains proprietary and confidential information,
 including trade secrets, belonging to Gaussian, Inc.
  
 This software is provided under written license and may be
 used, copied, transmitted, or stored only in accord with that
 written license.
  
 The following legend is applicable only to US Government
 contracts under FAR:
  
                    RESTRICTED RIGHTS LEGEND
  
 Use, reproduction and disclosure by the US Government is
 subject to restrictions as set forth in subparagraphs (a)
 and (c) of the Commercial Computer Software - Restricted
 Rights clause in FAR 52.227-19.
  
 Gaussian, Inc.
 340 Quinnipiac St., Bldg. 40, Wallingford CT 06492
  
  
 ---------------------------------------------------------------
 Warning -- This program may not be used in any manner that
 competes with the business of Gaussian, Inc. or will provide
 assistance to any competitor of Gaussian, Inc.  The licensee
 of this program is prohibited from giving any competitor of
 Gaussian, Inc. access to this program.  By using this program,
 the user acknowledges that Gaussian, Inc. is engaged in the
 business of creating and licensing software in the field of
 computational chemistry and represents and warrants to the
 licensee that it is not a competitor of Gaussian, Inc. and that
 it will not use this program in any manner prohibited above.
 ---------------------------------------------------------------
  

 Cite this work as:
 Gaussian 16, Revision A.03,
 M. J. Frisch, G. W. Trucks, H. B. Schlegel, G. E. Scuseria, 
 M. A. Robb, J. R. Cheeseman, G. Scalmani, V. Barone, 
 G. A. Petersson, H. Nakatsuji, X. Li, M. Caricato, A. V. Marenich, 
 J. Bloino, B. G. Janesko, R. Gomperts, B. Mennucci, H. P. Hratchian, 
 J. V. Ortiz, A. F. Izmaylov, J. L. Sonnenberg, D. Williams-Young, 
 F. Ding, F. Lipparini, F. Egidi, J. Goings, B. Peng, A. Petrone, 
 T. Henderson, D. Ranasinghe, V. G. Zakrzewski, J. Gao, N. Rega, 
 G. Zheng, W. Liang, M. Hada, M. Ehara, K. Toyota, R. Fukuda, 
 J. Hasegawa, M. Ishida, T. Nakajima, Y. Honda, O. Kitao, H. Nakai, 
 T. Vreven, K. Throssell, J. A. Montgomery, Jr., J. E. Peralta, 
 F. Ogliaro, M. J. Bearpark, J. J. Heyd, E. N. Brothers, K. N. Kudin, 
 V. N. Staroverov, T. A. Keith, R. Kobayashi, J. Normand, 
 K. Raghavachari, A. P. Rendell, J. C. Burant, S. S. Iyengar, 
 J. Tomasi, M. Cossi, J. M. Millam, M. Klene, C. Adamo, R. Cammi, 
 J. W. Ochterski, R. L. Martin, K. Morokuma, O. Farkas, 
 J. B. Foresman, and D. J. Fox, Gaussian, Inc., Wallingford CT, 2016.
 
 ******************************************
 Gaussian 16:  ES64L-G16RevA.03 25-Dec-2016
                17-Jan-2020 
 ******************************************
 %mem=50GB
 %nprocshared=4
 Will use up to    4 processors via shared memory.
 --------------------------
 #p pop=MKUFF b3lyp/lanl2dz
 --------------------------
 1/38=1,172=1/1;
 2/12=2,17=6,18=5,40=1/2;
 3/5=6,6=3,11=2,25=1,30=1,74=-5/1,2,3;
 4//1;
 5/5=2,38=5/2;
 6/7=2,8=2,9=2,10=2,15=8,20=4,28=1/1,2;
 99/5=1,9=1/99;
 Leave Link    1 at Fri Jan 17 12:55:34 2020, MaxMem=  6710886400 cpu:               0.1 elap:               0.0
 (Enter /apps/gaussian/g16-a03/l101.exe)
 ----------------------
 OBT_1m_14sc_Sn_pop.gjf
 ----------------------
 Symbolic Z-matrix:
 Charge =  0 Multiplicity = 1
 C                     0.152     0.706    -0.001 
 C                     1.398     1.313    -0.001 
 C                     1.356     2.736    -0.001 
 C                     0.078     3.212    -0.001 
 S                    -1.096     1.945    -0.001 
 O                     2.523     0.542     0. 
 H                     2.229     3.372     0. 
 C                    -0.152    -0.706    -0.001 
 C                    -1.398    -1.313    -0.001 
 C                    -1.357    -2.736    -0.001 
 C                    -0.078    -3.212    -0.001 
 S                     1.096    -1.946     0. 
 O                    -2.523    -0.542    -0.001 
 H                    -2.229    -3.373    -0.001 
 C                     3.80039   1.18465   0.01339 
 H                     3.89907   1.80026  -0.85619 
 H                     3.88551   1.7908    0.89103 
 C                     4.91149   0.11833   0.01624 
 H                     4.81696  -0.49295   0.88934 
 H                     4.82217  -0.49217  -0.85795 
 C                     6.28719   0.81044   0.02066 
 H                     7.05918   0.06956   0.02395 
 H                     6.38224   1.4207   -0.8531 
 C                     6.415     1.69057   1.27789 
 H                     6.03933   2.67007   1.06727 
 H                     5.85048   1.25612   2.0763 
 C                     7.89599   1.78625   1.68914 
 H                     8.47196   2.15286   0.86528 
 H                     7.99338   2.45553   2.51829 
 C                     8.40782   0.39101   2.09279 
 H                     7.67332  -0.09672   2.69902 
 H                     8.58794  -0.19105   1.21321 
 C                     9.71756   0.53548   2.88985 
 H                     10.11665  -0.43501   3.09909 
 H                     9.52102   1.04614   3.80936 
 C                     10.73578   1.34176   2.06237 
 H                     10.51193   2.38521   2.13984 
 H                     10.68076   1.04034   1.03718 
 C                     12.15539   1.08009   2.59888 
 H                     12.18965   1.30886   3.64358 
 H                     12.40868   0.05113   2.45059 
 C                     13.16114   1.97008   1.84524 
 H                     12.9117   2.9992    1.99886 
 H                     13.12221   1.74589   0.79971 
 C                     14.58191   1.7016    2.37526 
 H                     14.83432   0.67429   2.21456 
 H                     14.61881   1.91835   3.42243 
 C                     15.58627   2.59971   1.62944 
 H                     15.33464   3.62704   1.79123 
 H                     15.5484   2.3839    0.58211 
 C                     17.00728   2.32984   2.15812 
 H                     17.70469   2.95629   1.6423 
 H                     17.04427   2.54241   3.20614 
 C                     17.37129   0.85241   1.92084 
 H                     16.98288   0.25656   2.72021 
 H                     16.9483   0.52527   0.99404 
 H                     18.43561   0.74889   1.8834 
 C                    -3.05457  -1.45174  -0.96781 
 H                    -2.30648  -1.67037  -1.70093 
 H                    -3.35159  -2.35679  -0.48041 
 C                    -4.27622  -0.81417  -1.65532 
 H                    -3.94739  -0.19056  -2.46023 
 H                    -4.91253  -1.58459  -2.03803 
 C                    -5.05534   0.03469  -0.63355 
 H                    -4.69612   1.04227  -0.65915 
 H                    -4.91443  -0.36938   0.34715 
 C                    -6.55424   0.01496  -0.9864 
 H                    -7.08226   0.68187  -0.33731 
 H                    -6.68581   0.32655  -2.00154 
 C                    -7.1038   -1.41308  -0.81242 
 H                    -6.79028  -2.01881  -1.63686 
 H                    -6.73015  -1.83044   0.09922 
 C                    -8.6424   -1.36865  -0.76396 
 H                    -9.02705  -2.36644  -0.72706 
 H                    -8.95647  -0.83287   0.10737 
 C                    -9.17536  -0.65925  -2.02265 
 H                    -9.09028   0.40006  -1.89803 
 H                    -8.60353  -0.96533  -2.87366 
 C                    -10.65379  -1.03394  -2.23588 
 H                    -11.21219  -0.79835  -1.35407 
 H                    -10.73064  -2.08199  -2.43733 
 C                    -11.21791  -0.23929  -3.42831 
 H                    -11.15296   0.80851  -3.2214 
 H                    -10.65129  -0.46504  -4.30744 
 C                    -12.69104  -0.62776  -3.65324 
 H                    -13.25559  -0.4121   -2.77025 
 H                    -13.08615  -0.06766  -4.47486 
 C                    -12.78296  -2.13276  -3.96648 
 H                    -11.94753  -2.42345  -4.56853 
 H                    -12.77428  -2.68855  -3.05219 
 C                    -14.08978  -2.41948  -4.72912 
 H                    -14.06721  -1.92074  -5.67551 
 H                    -14.92154  -2.06328  -4.15799 
 C                    -14.23196  -3.93667  -4.95167 
 H                    -14.24064  -4.43664  -4.0057 
 H                    -13.40736  -4.29048  -5.53454 
 C                    -15.54848  -4.22504  -5.6968 
 H                    -15.54093  -3.72291  -6.64162 
 H                    -15.64599  -5.27897  -5.85377 
 H                    -16.37325  -3.87363  -5.11271 
 Sn                   -0.218     5.331     0. 
 C                     0.505     6.354     1.772 
 H                     1.566     6.475     1.706 
 H                     0.041     7.316     1.843 
 H                     0.265     5.777     2.64 
 C                    -2.388     5.331     0. 
 H                    -2.745     4.829    -0.875 
 H                    -2.745     4.825     0.873 
 H                    -2.745     6.34      0.002 
 C                     0.505     6.354    -1.772 
 H                     0.081     7.336    -1.815 
 H                     1.572     6.428    -1.731 
 H                     0.219     5.804    -2.643 
 Sn                    0.346    -5.31      0. 
 C                     1.735    -6.132    -1.451 
 H                     2.738    -5.967    -1.118 
 H                     1.562    -7.183    -1.554 
 H                     1.589    -5.652    -2.396 
 C                     1.409    -5.902     1.797 
 H                     1.376    -6.967     1.896 
 H                     2.427    -5.581     1.731 
 H                     0.947    -5.45      2.65 
 C                    -1.412    -6.582     0.001 
 H                    -2.008    -6.366     0.862 
 H                    -1.984    -6.4      -0.885 
 H                    -1.109    -7.608     0.025 
 
 ITRead=  0  0  0  0  0  0  0  0  0  0  0  0  0  0  0  0  0  0  0  0
 ITRead=  0  0  0  0  0  0  0  0  0  0  0  0  0  0  0  0  0  0  0  0
 ITRead=  0  0  0  0  0  0  0  0  0  0  0  0  0  0  0  0  0  0  0  0
 ITRead=  0  0  0  0  0  0  0  0  0  0  0  0  0  0  0  0  0  0  0  0
 ITRead=  0  0  0  0  0  0  0  0  0  0  0  0  0  0  0  0  0  0  0  0
 ITRead=  0  0  0  0  0  0  0  0  0  0  0  0  0  0  0  0  0  0  0  0
 ITRead=  0  0  0  0  0  0
 MicOpt= -1 -1 -1 -1 -1 -1 -1 -1 -1 -1 -1 -1 -1 -1 -1 -1 -1 -1 -1 -1
 MicOpt= -1 -1 -1 -1 -1 -1 -1 -1 -1 -1 -1 -1 -1 -1 -1 -1 -1 -1 -1 -1
 MicOpt= -1 -1 -1 -1 -1 -1 -1 -1 -1 -1 -1 -1 -1 -1 -1 -1 -1 -1 -1 -1
 MicOpt= -1 -1 -1 -1 -1 -1 -1 -1 -1 -1 -1 -1 -1 -1 -1 -1 -1 -1 -1 -1
 MicOpt= -1 -1 -1 -1 -1 -1 -1 -1 -1 -1 -1 -1 -1 -1 -1 -1 -1 -1 -1 -1
 MicOpt= -1 -1 -1 -1 -1 -1 -1 -1 -1 -1 -1 -1 -1 -1 -1 -1 -1 -1 -1 -1
 MicOpt= -1 -1 -1 -1 -1 -1
 NAtoms=    126 NQM=      126 NQMF=       0 NMMI=      0 NMMIF=      0
                NMic=       0 NMicF=      0.
                    Isotopes and Nuclear Properties:
 (Nuclear quadrupole moments (NQMom) in fm**2, nuclear magnetic moments (NMagM)
  in nuclear magnetons)

  Atom         1           2           3           4           5           6           7           8           9          10
 IAtWgt=          12          12          12          12          32          16           1          12          12          12
 AtmWgt=  12.0000000  12.0000000  12.0000000  12.0000000  31.9720718  15.9949146   1.0078250  12.0000000  12.0000000  12.0000000
 NucSpn=           0           0           0           0           0           0           1           0           0           0
 AtZEff=  -0.0000000  -0.0000000  -0.0000000  -0.0000000  -0.0000000  -0.0000000  -0.0000000  -0.0000000  -0.0000000  -0.0000000
 NQMom=    0.0000000   0.0000000   0.0000000   0.0000000   0.0000000   0.0000000   0.0000000   0.0000000   0.0000000   0.0000000
 NMagM=    0.0000000   0.0000000   0.0000000   0.0000000   0.0000000   0.0000000   2.7928460   0.0000000   0.0000000   0.0000000
 AtZNuc=   6.0000000   6.0000000   6.0000000   6.0000000  16.0000000   8.0000000   1.0000000   6.0000000   6.0000000   6.0000000

  Atom        11          12          13          14          15          16          17          18          19          20
 IAtWgt=          12          32          16           1          12           1           1          12           1           1
 AtmWgt=  12.0000000  31.9720718  15.9949146   1.0078250  12.0000000   1.0078250   1.0078250  12.0000000   1.0078250   1.0078250
 NucSpn=           0           0           0           1           0           1           1           0           1           1
 AtZEff=  -0.0000000  -0.0000000  -0.0000000  -0.0000000  -0.0000000  -0.0000000  -0.0000000  -0.0000000  -0.0000000  -0.0000000
 NQMom=    0.0000000   0.0000000   0.0000000   0.0000000   0.0000000   0.0000000   0.0000000   0.0000000   0.0000000   0.0000000
 NMagM=    0.0000000   0.0000000   0.0000000   2.7928460   0.0000000   2.7928460   2.7928460   0.0000000   2.7928460   2.7928460
 AtZNuc=   6.0000000  16.0000000   8.0000000   1.0000000   6.0000000   1.0000000   1.0000000   6.0000000   1.0000000   1.0000000

  Atom        21          22          23          24          25          26          27          28          29          30
 IAtWgt=          12           1           1          12           1           1          12           1           1          12
 AtmWgt=  12.0000000   1.0078250   1.0078250  12.0000000   1.0078250   1.0078250  12.0000000   1.0078250   1.0078250  12.0000000
 NucSpn=           0           1           1           0           1           1           0           1           1           0
 AtZEff=  -0.0000000  -0.0000000  -0.0000000  -0.0000000  -0.0000000  -0.0000000  -0.0000000  -0.0000000  -0.0000000  -0.0000000
 NQMom=    0.0000000   0.0000000   0.0000000   0.0000000   0.0000000   0.0000000   0.0000000   0.0000000   0.0000000   0.0000000
 NMagM=    0.0000000   2.7928460   2.7928460   0.0000000   2.7928460   2.7928460   0.0000000   2.7928460   2.7928460   0.0000000
 AtZNuc=   6.0000000   1.0000000   1.0000000   6.0000000   1.0000000   1.0000000   6.0000000   1.0000000   1.0000000   6.0000000

  Atom        31          32          33          34          35          36          37          38          39          40
 IAtWgt=           1           1          12           1           1          12           1           1          12           1
 AtmWgt=   1.0078250   1.0078250  12.0000000   1.0078250   1.0078250  12.0000000   1.0078250   1.0078250  12.0000000   1.0078250
 NucSpn=           1           1           0           1           1           0           1           1           0           1
 AtZEff=  -0.0000000  -0.0000000  -0.0000000  -0.0000000  -0.0000000  -0.0000000  -0.0000000  -0.0000000  -0.0000000  -0.0000000
 NQMom=    0.0000000   0.0000000   0.0000000   0.0000000   0.0000000   0.0000000   0.0000000   0.0000000   0.0000000   0.0000000
 NMagM=    2.7928460   2.7928460   0.0000000   2.7928460   2.7928460   0.0000000   2.7928460   2.7928460   0.0000000   2.7928460
 AtZNuc=   1.0000000   1.0000000   6.0000000   1.0000000   1.0000000   6.0000000   1.0000000   1.0000000   6.0000000   1.0000000

  Atom        41          42          43          44          45          46          47          48          49          50
 IAtWgt=           1          12           1           1          12           1           1          12           1           1
 AtmWgt=   1.0078250  12.0000000   1.0078250   1.0078250  12.0000000   1.0078250   1.0078250  12.0000000   1.0078250   1.0078250
 NucSpn=           1           0           1           1           0           1           1           0           1           1
 AtZEff=  -0.0000000  -0.0000000  -0.0000000  -0.0000000  -0.0000000  -0.0000000  -0.0000000  -0.0000000  -0.0000000  -0.0000000
 NQMom=    0.0000000   0.0000000   0.0000000   0.0000000   0.0000000   0.0000000   0.0000000   0.0000000   0.0000000   0.0000000
 NMagM=    2.7928460   0.0000000   2.7928460   2.7928460   0.0000000   2.7928460   2.7928460   0.0000000   2.7928460   2.7928460
 AtZNuc=   1.0000000   6.0000000   1.0000000   1.0000000   6.0000000   1.0000000   1.0000000   6.0000000   1.0000000   1.0000000

  Atom        51          52          53          54          55          56          57          58          59          60
 IAtWgt=          12           1           1          12           1           1           1          12           1           1
 AtmWgt=  12.0000000   1.0078250   1.0078250  12.0000000   1.0078250   1.0078250   1.0078250  12.0000000   1.0078250   1.0078250
 NucSpn=           0           1           1           0           1           1           1           0           1           1
 AtZEff=  -0.0000000  -0.0000000  -0.0000000  -0.0000000  -0.0000000  -0.0000000  -0.0000000  -0.0000000  -0.0000000  -0.0000000
 NQMom=    0.0000000   0.0000000   0.0000000   0.0000000   0.0000000   0.0000000   0.0000000   0.0000000   0.0000000   0.0000000
 NMagM=    0.0000000   2.7928460   2.7928460   0.0000000   2.7928460   2.7928460   2.7928460   0.0000000   2.7928460   2.7928460
 AtZNuc=   6.0000000   1.0000000   1.0000000   6.0000000   1.0000000   1.0000000   1.0000000   6.0000000   1.0000000   1.0000000

  Atom        61          62          63          64          65          66          67          68          69          70
 IAtWgt=          12           1           1          12           1           1          12           1           1          12
 AtmWgt=  12.0000000   1.0078250   1.0078250  12.0000000   1.0078250   1.0078250  12.0000000   1.0078250   1.0078250  12.0000000
 NucSpn=           0           1           1           0           1           1           0           1           1           0
 AtZEff=  -0.0000000  -0.0000000  -0.0000000  -0.0000000  -0.0000000  -0.0000000  -0.0000000  -0.0000000  -0.0000000  -0.0000000
 NQMom=    0.0000000   0.0000000   0.0000000   0.0000000   0.0000000   0.0000000   0.0000000   0.0000000   0.0000000   0.0000000
 NMagM=    0.0000000   2.7928460   2.7928460   0.0000000   2.7928460   2.7928460   0.0000000   2.7928460   2.7928460   0.0000000
 AtZNuc=   6.0000000   1.0000000   1.0000000   6.0000000   1.0000000   1.0000000   6.0000000   1.0000000   1.0000000   6.0000000

  Atom        71          72          73          74          75          76          77          78          79          80
 IAtWgt=           1           1          12           1           1          12           1           1          12           1
 AtmWgt=   1.0078250   1.0078250  12.0000000   1.0078250   1.0078250  12.0000000   1.0078250   1.0078250  12.0000000   1.0078250
 NucSpn=           1           1           0           1           1           0           1           1           0           1
 AtZEff=  -0.0000000  -0.0000000  -0.0000000  -0.0000000  -0.0000000  -0.0000000  -0.0000000  -0.0000000  -0.0000000  -0.0000000
 NQMom=    0.0000000   0.0000000   0.0000000   0.0000000   0.0000000   0.0000000   0.0000000   0.0000000   0.0000000   0.0000000
 NMagM=    2.7928460   2.7928460   0.0000000   2.7928460   2.7928460   0.0000000   2.7928460   2.7928460   0.0000000   2.7928460
 AtZNuc=   1.0000000   1.0000000   6.0000000   1.0000000   1.0000000   6.0000000   1.0000000   1.0000000   6.0000000   1.0000000

  Atom        81          82          83          84          85          86          87          88          89          90
 IAtWgt=           1          12           1           1          12           1           1          12           1           1
 AtmWgt=   1.0078250  12.0000000   1.0078250   1.0078250  12.0000000   1.0078250   1.0078250  12.0000000   1.0078250   1.0078250
 NucSpn=           1           0           1           1           0           1           1           0           1           1
 AtZEff=  -0.0000000  -0.0000000  -0.0000000  -0.0000000  -0.0000000  -0.0000000  -0.0000000  -0.0000000  -0.0000000  -0.0000000
 NQMom=    0.0000000   0.0000000   0.0000000   0.0000000   0.0000000   0.0000000   0.0000000   0.0000000   0.0000000   0.0000000
 NMagM=    2.7928460   0.0000000   2.7928460   2.7928460   0.0000000   2.7928460   2.7928460   0.0000000   2.7928460   2.7928460
 AtZNuc=   1.0000000   6.0000000   1.0000000   1.0000000   6.0000000   1.0000000   1.0000000   6.0000000   1.0000000   1.0000000

  Atom        91          92          93          94          95          96          97          98          99         100
 IAtWgt=          12           1           1          12           1           1          12           1           1           1
 AtmWgt=  12.0000000   1.0078250   1.0078250  12.0000000   1.0078250   1.0078250  12.0000000   1.0078250   1.0078250   1.0078250
 NucSpn=           0           1           1           0           1           1           0           1           1           1
 AtZEff=  -0.0000000  -0.0000000  -0.0000000  -0.0000000  -0.0000000  -0.0000000  -0.0000000  -0.0000000  -0.0000000  -0.0000000
 NQMom=    0.0000000   0.0000000   0.0000000   0.0000000   0.0000000   0.0000000   0.0000000   0.0000000   0.0000000   0.0000000
 NMagM=    0.0000000   2.7928460   2.7928460   0.0000000   2.7928460   2.7928460   0.0000000   2.7928460   2.7928460   2.7928460
 AtZNuc=   6.0000000   1.0000000   1.0000000   6.0000000   1.0000000   1.0000000   6.0000000   1.0000000   1.0000000   1.0000000

  Atom       101         102         103         104         105         106         107         108         109         110
 IAtWgt=         118          12           1           1           1          12           1           1           1          12
 AtmWgt= 117.9018000  12.0000000   1.0078250   1.0078250   1.0078250  12.0000000   1.0078250   1.0078250   1.0078250  12.0000000
 NucSpn=           0           0           1           1           1           0           1           1           1           0
 AtZEff=  -0.0000000  -0.0000000  -0.0000000  -0.0000000  -0.0000000  -0.0000000  -0.0000000  -0.0000000  -0.0000000  -0.0000000
 NQMom=    0.0000000   0.0000000   0.0000000   0.0000000   0.0000000   0.0000000   0.0000000   0.0000000   0.0000000   0.0000000
 NMagM=    0.0000000   0.0000000   2.7928460   2.7928460   2.7928460   0.0000000   2.7928460   2.7928460   2.7928460   0.0000000
 AtZNuc=  50.0000000   6.0000000   1.0000000   1.0000000   1.0000000   6.0000000   1.0000000   1.0000000   1.0000000   6.0000000

  Atom       111         112         113         114         115         116         117         118         119         120
 IAtWgt=           1           1           1         118          12           1           1           1          12           1
 AtmWgt=   1.0078250   1.0078250   1.0078250 117.9018000  12.0000000   1.0078250   1.0078250   1.0078250  12.0000000   1.0078250
 NucSpn=           1           1           1           0           0           1           1           1           0           1
 AtZEff=  -0.0000000  -0.0000000  -0.0000000  -0.0000000  -0.0000000  -0.0000000  -0.0000000  -0.0000000  -0.0000000  -0.0000000
 NQMom=    0.0000000   0.0000000   0.0000000   0.0000000   0.0000000   0.0000000   0.0000000   0.0000000   0.0000000   0.0000000
 NMagM=    2.7928460   2.7928460   2.7928460   0.0000000   0.0000000   2.7928460   2.7928460   2.7928460   0.0000000   2.7928460
 AtZNuc=   1.0000000   1.0000000   1.0000000  50.0000000   6.0000000   1.0000000   1.0000000   1.0000000   6.0000000   1.0000000

  Atom       121         122         123         124         125         126
 IAtWgt=           1           1          12           1           1           1
 AtmWgt=   1.0078250   1.0078250  12.0000000   1.0078250   1.0078250   1.0078250
 NucSpn=           1           1           0           1           1           1
 AtZEff=  -0.0000000  -0.0000000  -0.0000000  -0.0000000  -0.0000000  -0.0000000
 NQMom=    0.0000000   0.0000000   0.0000000   0.0000000   0.0000000   0.0000000
 NMagM=    2.7928460   2.7928460   0.0000000   2.7928460   2.7928460   2.7928460
 AtZNuc=   1.0000000   1.0000000   6.0000000   1.0000000   1.0000000   1.0000000
 Leave Link  101 at Fri Jan 17 12:55:34 2020, MaxMem=  6710886400 cpu:               0.6 elap:               0.2
 (Enter /apps/gaussian/g16-a03/l202.exe)
 Stoichiometry    C42H78O2S2Sn2
 Framework group  C1[X(C42H78O2S2Sn2)]
 Deg. of freedom   372
 Full point group                 C1      NOp   1
 Largest Abelian subgroup         C1      NOp   1
 Largest concise Abelian subgroup C1      NOp   1
                         Standard orientation:                         
 ---------------------------------------------------------------------
 Center     Atomic      Atomic             Coordinates (Angstroms)
 Number     Number       Type             X           Y           Z
 ---------------------------------------------------------------------
      1          6           0       -0.076238    0.756512   -0.232181
      2          6           0       -1.372326    1.166221    0.038483
      3          6           0       -1.547419    2.578875    0.059598
      4          6           0       -0.384555    3.244296   -0.195003
      5         16           0        0.941989    2.171371   -0.464588
      6          8           0       -2.342832    0.232611    0.254253
      7          1           0       -2.487657    3.074152    0.252673
      8          6           0        0.431549   -0.592471   -0.324695
      9          6           0        1.727637   -1.002180   -0.595359
     10          6           0        1.903697   -2.414681   -0.616682
     11          6           0        0.739867   -3.080255   -0.361873
     12         16           0       -0.586734   -2.008329   -0.093287
     13          8           0        2.697935   -0.068581   -0.812107
     14          1           0        2.842913   -2.911111   -0.810548
     15          6           0       -3.677438    0.672614    0.519060
     16          1           0       -3.685425    1.275597    1.402942
     17          1           0       -4.033927    1.248859   -0.309045
     18          6           0       -4.590134   -0.550743    0.723960
     19          1           0       -4.587545   -1.150114   -0.162407
     20          1           0       -4.229651   -1.130692    1.547739
     21          6           0       -6.025378   -0.076761    1.018940
     22          1           0       -6.659793   -0.926771    1.160018
     23          1           0       -6.028173    0.521532    1.906035
     24          6           0       -6.543518    0.759502   -0.165878
     25          1           0       -6.285181    1.787137   -0.017119
     26          1           0       -6.098031    0.407424   -1.072786
     27          6           0       -8.074637    0.623469   -0.259529
     28          1           0       -8.515618    0.907046    0.673219
     29          1           0       -8.442480    1.260772   -1.036341
     30          6           0       -8.441653   -0.837942   -0.577611
     31          1           0       -7.783895   -1.214595   -1.332851
     32          1           0       -8.344728   -1.430846    0.307810
     33          6           0       -9.894846   -0.903916   -1.083058
     34          1           0      -10.176889   -1.926209   -1.225424
     35          1           0       -9.973373   -0.379514   -2.012432
     36          6           0      -10.829088   -0.253298   -0.046000
     37          1           0      -10.787011    0.811162   -0.146265
     38          1           0      -10.517212   -0.531364    0.939045
     39          6           0      -12.272755   -0.734501   -0.282363
     40          1           0      -12.557604   -0.525285   -1.292308
     41          1           0      -12.330758   -1.788345   -0.106439
     42          6           0      -13.222972   -0.000073    0.681640
     43          1           0      -13.169829    1.053280    0.501299
     44          1           0      -12.934133   -0.204049    1.691524
     45          6           0      -14.665385   -0.488112    0.451722
     46          1           0      -14.720212   -1.540054    0.639640
     47          1           0      -14.951484   -0.291206   -0.560343
     48          6           0      -15.617119    0.254460    1.407959
     49          1           0      -15.563287    1.306291    1.219135
     50          1           0      -15.330204    0.058629    2.420001
     51          6           0      -17.059274   -0.234968    1.179376
     52          1           0      -17.720999    0.283420    1.841413
     53          1           0      -17.344997   -0.042215    0.166405
     54          6           0      -17.137810   -1.747906    1.455873
     55          1           0      -16.838248   -2.286370    0.581105
     56          1           0      -16.486890   -1.996327    2.267963
     57          1           0      -18.142858   -2.012216    1.710662
     58          6           0        3.550391   -0.875722    0.004436
     59          1           0        3.012938   -1.197783    0.871800
     60          1           0        3.873326   -1.730221   -0.552738
     61          6           0        4.777167   -0.051581    0.437349
     62          1           0        4.532126    0.523470    1.305779
     63          1           0        5.588359   -0.711568    0.663813
     64          6           0        5.189111    0.894803   -0.705569
     65          1           0        4.694588    1.835985   -0.585054
     66          1           0        4.910424    0.463065   -1.644097
     67          6           0        6.713898    1.107969   -0.671156
     68          1           0        6.988211    1.840380   -1.401380
     69          1           0        7.004747    1.447271    0.301048
     70          6           0        7.425273   -0.221330   -0.985016
     71          1           0        7.385403   -0.858592   -0.126408
     72          1           0        6.938023   -0.700946   -1.808094
     73          6           0        8.895307    0.056838   -1.350013
     74          1           0        9.410582   -0.870915   -1.486635
     75          1           0        8.936563    0.624530   -2.256062
     76          6           0        9.564351    0.853227   -0.214344
     77          1           0        9.295683    1.885689   -0.296431
     78          1           0        9.234970    0.472963    0.730012
     79          6           0       11.094140    0.710937   -0.319697
     80          1           0       11.414835    1.019149   -1.292867
     81          1           0       11.369115   -0.310803   -0.160522
     82          6           0       11.766610    1.595594    0.746496
     83          1           0       11.502038    2.618833    0.579515
     84          1           0       11.435931    1.295821    1.718960
     85          6           0       13.295796    1.438999    0.653392
     86          1           0       13.625201    1.728444   -0.322628
     87          1           0       13.763441    2.061951    1.386972
     88          6           0       13.677826   -0.030764    0.909221
     89          1           0       13.039650   -0.438810    1.664952
     90          1           0       13.563704   -0.591511    0.005097
     91          6           0       15.142604   -0.106190    1.378623
     92          1           0       15.241843    0.393765    2.319418
     93          1           0       15.773729    0.366387    0.655262
     94          6           0       15.556200   -1.581338    1.535082
     95          1           0       15.443807   -2.084634    0.597553
     96          1           0       14.934066   -2.050328    2.268496
     97          6           0       17.026965   -1.657118    1.985313
     98          1           0       17.139872   -1.151526    2.921544
     99          1           0       17.313550   -2.682002    2.096590
    100          1           0       17.649367   -1.190479    1.250627
    101         50           0       -0.419891    5.383504   -0.212870
    102          6           0       -1.641811    6.264397   -1.774977
    103          1           0       -2.671747    6.222796   -1.488238
    104          1           0       -1.353980    7.285087   -1.920329
    105          1           0       -1.502783    5.721152   -2.685751
    106          6           0        1.677113    5.714652   -0.662106
    107          1           0        2.279999    5.282784    0.109319
    108          1           0        1.917405    5.259369   -1.600504
    109          1           0        1.868757    6.766227   -0.716831
    110          6           0       -0.905437    6.303855    1.691452
    111          1           0       -0.635605    7.339474    1.666305
    112          1           0       -1.956280    6.213700    1.873791
    113          1           0       -0.364719    5.813673    2.472658
    114         50           0        0.647910   -5.218265   -0.319024
    115          6           0       -0.268288   -6.226396    1.370549
    116          1           0       -1.331748   -6.220107    1.255937
    117          1           0        0.079591   -7.237474    1.413463
    118          1           0       -0.003599   -5.719247    2.274695
    119          6           0       -0.662986   -5.985518   -1.869030
    120          1           0       -0.490247   -7.034044   -1.995005
    121          1           0       -1.681681   -5.822913   -1.587002
    122          1           0       -0.462272   -5.477835   -2.789534
    123          6           0        2.539360   -6.207023   -0.710592
    124          1           0        2.903674   -5.912201   -1.671607
    125          1           0        3.248627   -5.930013    0.041411
    126          1           0        2.397073   -7.267448   -0.692833
 ---------------------------------------------------------------------
 Rotational constants (GHZ):           0.0429611           0.0097567           0.0081140
 Leave Link  202 at Fri Jan 17 12:55:34 2020, MaxMem=  6710886400 cpu:               0.0 elap:               0.0
 (Enter /apps/gaussian/g16-a03/l301.exe)
 Standard basis: LANL2DZ (5D, 7F)
 Ernie: Thresh=  0.10000D-02 Tol=  0.10000D-05 Strict=F.
 There are   584 symmetry adapted cartesian basis functions of A   symmetry.
 There are   584 symmetry adapted basis functions of A   symmetry.
   584 basis functions,  1460 primitive gaussians,   584 cartesian basis functions
   183 alpha electrons      183 beta electrons
       nuclear repulsion energy      5050.4787472405 Hartrees.



 Warning!  S  atom    5 may be hypervalent but has no d functions.
 Warning!  S  atom   12 may be hypervalent but has no d functions.



 IExCor=  402 DFT=T Ex+Corr=B3LYP ExCW=0 ScaHFX=  0.200000
 ScaDFX=  0.800000  0.720000  1.000000  0.810000 ScalE2=  1.000000  1.000000
 IRadAn=      5 IRanWt=     -1 IRanGd=            0 ICorTp=0 IEmpDi=  4
 NAtoms=  126 NActive=  126 NUniq=  126 SFac= 1.00D+00 NAtFMM=   60 NAOKFM=T Big=T
 Integral buffers will be    131072 words long.
 Raffenetti 2 integral format.
 Two-electron integral symmetry is turned on.
 Leave Link  301 at Fri Jan 17 12:55:35 2020, MaxMem=  6710886400 cpu:               0.3 elap:               0.1
 (Enter /apps/gaussian/g16-a03/l302.exe)
 NPDir=0 NMtPBC=     1 NCelOv=     1 NCel=       1 NClECP=     1 NCelD=      1
         NCelK=      1 NCelE2=     1 NClLst=     1 CellRange=     0.0.
 One-electron integrals computed using PRISM.
 One-electron integral symmetry used in STVInt
   1 Symmetry operations used in ECPInt.
 ECPInt:  NShTT=   77028 NPrTT=  497980 LenC2=   38089 LenP2D=  126575.
 LDataN:  DoStor=T MaxTD1= 4 Len=   56
 NBasis=   584 RedAO= T EigKep=  9.24D-04  NBF=   584
 NBsUse=   584 1.00D-06 EigRej= -1.00D+00 NBFU=   584
 Precomputing XC quadrature grid using
 IXCGrd= 4 IRadAn=           5 IRanWt=          -1 IRanGd=           0 AccXCQ= 0.00D+00.
 Defaulting to unpruned grid for atomic number  50.
 Generated NRdTot=       0 NPtTot=           0 NUsed=           0 NTot=          32
 NSgBfM=   451   451   451   451   451 MxSgAt=   126 MxSgA2=   124.
 Leave Link  302 at Fri Jan 17 12:55:42 2020, MaxMem=  6710886400 cpu:              30.3 elap:               7.6
 (Enter /apps/gaussian/g16-a03/l303.exe)
 DipDrv:  MaxL=1.
 Leave Link  303 at Fri Jan 17 12:55:42 2020, MaxMem=  6710886400 cpu:               0.7 elap:               0.2
 (Enter /apps/gaussian/g16-a03/l401.exe)
 ExpMin= 6.30D-02 ExpMax= 7.82D+03 ExpMxC= 2.73D+02 IAcc=3 IRadAn=         5 AccDes= 0.00D+00
 Harris functional with IExCor=  402 and IRadAn=       5 diagonalized for initial guess.
 HarFok:  IExCor=  402 AccDes= 0.00D+00 IRadAn=         5 IDoV= 1 UseB2=F ITyADJ=14
 ICtDFT=  3500011 ScaDFX=  1.000000  1.000000  1.000000  1.000000
 Defaulting to unpruned grid for atomic number  50.
 FoFCou: FMM=F IPFlag=           0 FMFlag=      100000 FMFlg1=        2001
         NFxFlg=           0 DoJE=T BraDBF=F KetDBF=T FulRan=T
         wScrn=  0.000000 ICntrl=       500 IOpCl=  0 I1Cent=   200000004 NGrid=           0
         NMat0=    1 NMatS0=      1 NMatT0=    0 NMatD0=    1 NMtDS0=    0 NMtDT0=    0
 Petite list used in FoFCou.
 Harris En= -1824.93353311695    
 JPrj=0 DoOrth=F DoCkMO=F.
 Leave Link  401 at Fri Jan 17 12:56:05 2020, MaxMem=  6710886400 cpu:              91.4 elap:              22.9
 (Enter /apps/gaussian/g16-a03/l502.exe)
 Integral symmetry usage will be decided dynamically.
 Closed shell SCF:
 Using DIIS extrapolation, IDIIS=  1040.
 NGot=  6710886400 LenX=  6710192226 LenY=  6709850586
 Requested convergence on RMS density matrix=1.00D-08 within 128 cycles.
 Requested convergence on MAX density matrix=1.00D-06.
 Requested convergence on             energy=1.00D-06.
 No special actions if energy rises.
 Fock matrices will be formed incrementally for  20 cycles.
 Integral accuracy reduced to 1.0D-05 until final iterations.

 Cycle   1  Pass 0  IDiag  1:
 FoFJK:  IHMeth= 1 ICntrl=       0 DoSepK=F KAlg= 0 I1Cent=           0 FoldK=F
 IRaf= 640000000 NMat=       1 IRICut=       1 DoRegI=T DoRafI=F ISym2E= 0 IDoP0=0 IntGTp=1.
 FoFCou: FMM=T IPFlag=           0 FMFlag=      100000 FMFlg1=        2001
         NFxFlg=           0 DoJE=F BraDBF=F KetDBF=F FulRan=T
         wScrn=  0.000000 ICntrl=         0 IOpCl=  0 I1Cent=           0 NGrid=           0
         NMat0=    1 NMatS0=      1 NMatT0=    0 NMatD0=    1 NMtDS0=    0 NMtDT0=    0
 Symmetry not used in FoFCou.
 FMM levels:  10  Number of levels for PrismC:   9
 Defaulting to unpruned grid for atomic number  50.
 Defaulting to unpruned grid for atomic number  50.
 Defaulting to unpruned grid for atomic number  50.
 Defaulting to unpruned grid for atomic number  50.
 E= -1822.24840482834    
 DIIS: error= 6.63D-02 at cycle   1 NSaved=   1.
 NSaved= 1 IEnMin= 1 EnMin= -1822.24840482834     IErMin= 1 ErrMin= 6.63D-02
 ErrMax= 6.63D-02  0.00D+00 EMaxC= 1.00D-01 BMatC= 1.68D+00 BMatP= 1.68D+00
 IDIUse=3 WtCom= 3.37D-01 WtEn= 6.63D-01
 Coeff-Com:  0.100D+01
 Coeff-En:   0.100D+01
 Coeff:      0.100D+01
 Gap=     0.090 Goal=   None    Shift=    0.000
 GapD=    0.090 DampG=0.500 DampE=0.500 DampFc=0.2500 IDamp=-1.
 Damping current iteration by 2.50D-01
 RMSDP=6.05D-03 MaxDP=3.13D-01              OVMax= 2.98D-01

 Cycle   2  Pass 0  IDiag  1:
 RMSU=  1.45D-03    CP:  9.75D-01
 E= -1823.06341187889     Delta-E=       -0.815007050546 Rises=F Damp=T
 DIIS: error= 2.84D-02 at cycle   2 NSaved=   2.
 NSaved= 2 IEnMin= 2 EnMin= -1823.06341187889     IErMin= 2 ErrMin= 2.84D-02
 ErrMax= 2.84D-02  0.00D+00 EMaxC= 1.00D-01 BMatC= 3.66D-01 BMatP= 1.68D+00
 IDIUse=3 WtCom= 7.16D-01 WtEn= 2.84D-01
 Coeff-Com: -0.819D+00 0.182D+01
 Coeff-En:   0.000D+00 0.100D+01
 Coeff:     -0.586D+00 0.159D+01
 Gap=     0.147 Goal=   None    Shift=    0.000
 RMSDP=2.05D-03 MaxDP=1.16D-01 DE=-8.15D-01 OVMax= 1.94D-01

 Cycle   3  Pass 0  IDiag  1:
 RMSU=  1.25D-03    CP:  9.46D-01  2.07D+00
 E= -1824.35283905850     Delta-E=       -1.289427179611 Rises=F Damp=F
 DIIS: error= 1.09D-02 at cycle   3 NSaved=   3.
 NSaved= 3 IEnMin= 3 EnMin= -1824.35283905850     IErMin= 3 ErrMin= 1.09D-02
 ErrMax= 1.09D-02  0.00D+00 EMaxC= 1.00D-01 BMatC= 4.61D-02 BMatP= 3.66D-01
 IDIUse=3 WtCom= 8.91D-01 WtEn= 1.09D-01
 Coeff-Com:  0.295D-01 0.197D+00 0.773D+00
 Coeff-En:   0.000D+00 0.000D+00 0.100D+01
 Coeff:      0.263D-01 0.176D+00 0.798D+00
 Gap=     0.149 Goal=   None    Shift=    0.000
 RMSDP=6.76D-04 MaxDP=5.98D-02 DE=-1.29D+00 OVMax= 7.55D-02

 Cycle   4  Pass 0  IDiag  1:
 RMSU=  5.21D-04    CP:  9.54D-01  1.81D+00  8.53D-01
 E= -1824.39035767759     Delta-E=       -0.037518619089 Rises=F Damp=F
 DIIS: error= 9.65D-03 at cycle   4 NSaved=   4.
 NSaved= 4 IEnMin= 4 EnMin= -1824.39035767759     IErMin= 4 ErrMin= 9.65D-03
 ErrMax= 9.65D-03  0.00D+00 EMaxC= 1.00D-01 BMatC= 1.48D-02 BMatP= 4.61D-02
 IDIUse=3 WtCom= 9.04D-01 WtEn= 9.65D-02
 Coeff-Com:  0.160D+00-0.167D+00 0.586D+00 0.421D+00
 Coeff-En:   0.000D+00 0.000D+00 0.191D+00 0.809D+00
 Coeff:      0.145D+00-0.151D+00 0.548D+00 0.458D+00
 Gap=     0.145 Goal=   None    Shift=    0.000
 RMSDP=3.85D-04 MaxDP=4.46D-02 DE=-3.75D-02 OVMax= 5.98D-02

 Cycle   5  Pass 0  IDiag  1:
 RMSU=  1.33D-04    CP:  9.53D-01  1.82D+00  9.25D-01  3.30D-01
 E= -1824.40682406300     Delta-E=       -0.016466385415 Rises=F Damp=F
 DIIS: error= 2.79D-03 at cycle   5 NSaved=   5.
 NSaved= 5 IEnMin= 5 EnMin= -1824.40682406300     IErMin= 5 ErrMin= 2.79D-03
 ErrMax= 2.79D-03  0.00D+00 EMaxC= 1.00D-01 BMatC= 1.01D-03 BMatP= 1.48D-02
 IDIUse=3 WtCom= 9.72D-01 WtEn= 2.79D-02
 Coeff-Com:  0.735D-01-0.867D-01 0.250D+00 0.279D+00 0.484D+00
 Coeff-En:   0.000D+00 0.000D+00 0.000D+00 0.423D-01 0.958D+00
 Coeff:      0.715D-01-0.843D-01 0.243D+00 0.272D+00 0.497D+00
 Gap=     0.146 Goal=   None    Shift=    0.000
 RMSDP=9.37D-05 MaxDP=1.03D-02 DE=-1.65D-02 OVMax= 1.51D-02

 Cycle   6  Pass 0  IDiag  1:
 RMSU=  4.52D-05    CP:  9.53D-01  1.82D+00  9.32D-01  4.41D-01  5.70D-01
 E= -1824.40791281955     Delta-E=       -0.001088756546 Rises=F Damp=F
 DIIS: error= 7.42D-04 at cycle   6 NSaved=   6.
 NSaved= 6 IEnMin= 6 EnMin= -1824.40791281955     IErMin= 6 ErrMin= 7.42D-04
 ErrMax= 7.42D-04  0.00D+00 EMaxC= 1.00D-01 BMatC= 8.02D-05 BMatP= 1.01D-03
 IDIUse=3 WtCom= 9.93D-01 WtEn= 7.42D-03
 Coeff-Com:  0.204D-01-0.260D-01 0.647D-01 0.104D+00 0.307D+00 0.530D+00
 Coeff-En:   0.000D+00 0.000D+00 0.000D+00 0.000D+00 0.295D-01 0.970D+00
 Coeff:      0.203D-01-0.258D-01 0.642D-01 0.103D+00 0.305D+00 0.533D+00
 Gap=     0.146 Goal=   None    Shift=    0.000
 RMSDP=2.61D-05 MaxDP=3.04D-03 DE=-1.09D-03 OVMax= 3.45D-03

 Cycle   7  Pass 0  IDiag  1:
 RMSU=  1.72D-05    CP:  9.53D-01  1.82D+00  9.32D-01  4.30D-01  6.21D-01
                    CP:  6.15D-01
 E= -1824.40799258987     Delta-E=       -0.000079770322 Rises=F Damp=F
 DIIS: error= 1.88D-04 at cycle   7 NSaved=   7.
 NSaved= 7 IEnMin= 7 EnMin= -1824.40799258987     IErMin= 7 ErrMin= 1.88D-04
 ErrMax= 1.88D-04  0.00D+00 EMaxC= 1.00D-01 BMatC= 8.59D-06 BMatP= 8.02D-05
 IDIUse=3 WtCom= 9.98D-01 WtEn= 1.88D-03
 Coeff-Com:  0.238D-02-0.318D-02 0.763D-02 0.286D-01 0.127D+00 0.324D+00
 Coeff-Com:  0.514D+00
 Coeff-En:   0.000D+00 0.000D+00 0.000D+00 0.000D+00 0.000D+00 0.752D-01
 Coeff-En:   0.925D+00
 Coeff:      0.238D-02-0.317D-02 0.761D-02 0.286D-01 0.126D+00 0.323D+00
 Coeff:      0.515D+00
 Gap=     0.146 Goal=   None    Shift=    0.000
 RMSDP=9.00D-06 MaxDP=1.03D-03 DE=-7.98D-05 OVMax= 1.21D-03

 Cycle   8  Pass 0  IDiag  1:
 RMSU=  5.32D-06    CP:  9.53D-01  1.82D+00  9.32D-01  4.35D-01  6.17D-01
                    CP:  6.55D-01  6.17D-01
 E= -1824.40800143465     Delta-E=       -0.000008844779 Rises=F Damp=F
 DIIS: error= 3.64D-05 at cycle   8 NSaved=   8.
 NSaved= 8 IEnMin= 8 EnMin= -1824.40800143465     IErMin= 8 ErrMin= 3.64D-05
 ErrMax= 3.64D-05  0.00D+00 EMaxC= 1.00D-01 BMatC= 4.93D-07 BMatP= 8.59D-06
 IDIUse=1 WtCom= 1.00D+00 WtEn= 0.00D+00
 Coeff-Com:  0.278D-05-0.754D-04-0.170D-03 0.748D-02 0.432D-01 0.127D+00
 Coeff-Com:  0.273D+00 0.550D+00
 Coeff:      0.278D-05-0.754D-04-0.170D-03 0.748D-02 0.432D-01 0.127D+00
 Coeff:      0.273D+00 0.550D+00
 Gap=     0.146 Goal=   None    Shift=    0.000
 RMSDP=2.66D-06 MaxDP=2.06D-04 DE=-8.84D-06 OVMax= 2.56D-04

 Initial convergence to 1.0D-05 achieved.  Increase integral accuracy.
 Cycle   9  Pass 1  IDiag  1:
 E= -1824.40787415840     Delta-E=        0.000127276253 Rises=F Damp=F
 DIIS: error= 3.57D-04 at cycle   1 NSaved=   1.
 NSaved= 1 IEnMin= 1 EnMin= -1824.40787415840     IErMin= 1 ErrMin= 3.57D-04
 ErrMax= 3.57D-04  0.00D+00 EMaxC= 1.00D-01 BMatC= 2.69D-05 BMatP= 2.69D-05
 IDIUse=3 WtCom= 9.96D-01 WtEn= 3.57D-03
 Coeff-Com:  0.100D+01
 Coeff-En:   0.100D+01
 Coeff:      0.100D+01
 Gap=     0.146 Goal=   None    Shift=    0.000
 RMSDP=2.66D-06 MaxDP=2.06D-04 DE= 1.27D-04 OVMax= 7.74D-04

 Cycle  10  Pass 1  IDiag  1:
 RMSU=  1.55D-04    CP:  1.00D+00
 E= -1824.40791376188     Delta-E=       -0.000039603483 Rises=F Damp=F
 DIIS: error= 3.61D-05 at cycle   2 NSaved=   2.
 NSaved= 2 IEnMin= 2 EnMin= -1824.40791376188     IErMin= 2 ErrMin= 3.61D-05
 ErrMax= 3.61D-05  0.00D+00 EMaxC= 1.00D-01 BMatC= 2.93D-07 BMatP= 2.69D-05
 IDIUse=1 WtCom= 1.00D+00 WtEn= 0.00D+00
 Coeff-Com:  0.475D-02 0.995D+00
 Coeff:      0.475D-02 0.995D+00
 Gap=     0.146 Goal=   None    Shift=    0.000
 RMSDP=4.86D-06 MaxDP=4.36D-04 DE=-3.96D-05 OVMax= 5.28D-04

 Cycle  11  Pass 1  IDiag  1:
 RMSU=  4.15D-06    CP:  1.00D+00  1.02D+00
 E= -1824.40791273193     Delta-E=        0.000001029946 Rises=F Damp=F
 DIIS: error= 7.85D-05 at cycle   3 NSaved=   3.
 NSaved= 3 IEnMin= 2 EnMin= -1824.40791376188     IErMin= 2 ErrMin= 3.61D-05
 ErrMax= 7.85D-05  0.00D+00 EMaxC= 1.00D-01 BMatC= 1.16D-06 BMatP= 2.93D-07
 IDIUse=1 WtCom= 1.00D+00 WtEn= 0.00D+00
 Coeff-Com: -0.772D-02 0.672D+00 0.336D+00
 Coeff:     -0.772D-02 0.672D+00 0.336D+00
 Gap=     0.146 Goal=   None    Shift=    0.000
 RMSDP=2.75D-06 MaxDP=3.01D-04 DE= 1.03D-06 OVMax= 3.66D-04

 Cycle  12  Pass 1  IDiag  1:
 RMSU=  6.84D-07    CP:  1.00D+00  1.02D+00  3.58D-01
 E= -1824.40791411184     Delta-E=       -0.000001379908 Rises=F Damp=F
 DIIS: error= 3.37D-06 at cycle   4 NSaved=   4.
 NSaved= 4 IEnMin= 4 EnMin= -1824.40791411184     IErMin= 4 ErrMin= 3.37D-06
 ErrMax= 3.37D-06  0.00D+00 EMaxC= 1.00D-01 BMatC= 4.99D-09 BMatP= 2.93D-07
 IDIUse=1 WtCom= 1.00D+00 WtEn= 0.00D+00
 Coeff-Com: -0.432D-02 0.361D+00 0.186D+00 0.458D+00
 Coeff:     -0.432D-02 0.361D+00 0.186D+00 0.458D+00
 Gap=     0.146 Goal=   None    Shift=    0.000
 RMSDP=1.79D-07 MaxDP=1.77D-05 DE=-1.38D-06 OVMax= 2.11D-05

 Cycle  13  Pass 1  IDiag  1:
 RMSU=  1.60D-07    CP:  1.00D+00  1.02D+00  3.68D-01  8.99D-01
 E= -1824.40791411708     Delta-E=       -0.000000005240 Rises=F Damp=F
 DIIS: error= 9.87D-07 at cycle   5 NSaved=   5.
 NSaved= 5 IEnMin= 5 EnMin= -1824.40791411708     IErMin= 5 ErrMin= 9.87D-07
 ErrMax= 9.87D-07  0.00D+00 EMaxC= 1.00D-01 BMatC= 2.58D-10 BMatP= 4.99D-09
 IDIUse=1 WtCom= 1.00D+00 WtEn= 0.00D+00
 Coeff-Com: -0.104D-02 0.836D-01 0.446D-01 0.211D+00 0.662D+00
 Coeff:     -0.104D-02 0.836D-01 0.446D-01 0.211D+00 0.662D+00
 Gap=     0.146 Goal=   None    Shift=    0.000
 RMSDP=6.65D-08 MaxDP=4.89D-06 DE=-5.24D-09 OVMax= 6.49D-06

 Cycle  14  Pass 1  IDiag  1:
 RMSU=  6.11D-08    CP:  1.00D+00  1.02D+00  3.69D-01  9.13D-01  8.58D-01
 E= -1824.40791411731     Delta-E=       -0.000000000227 Rises=F Damp=F
 DIIS: error= 3.76D-07 at cycle   6 NSaved=   6.
 NSaved= 6 IEnMin= 6 EnMin= -1824.40791411731     IErMin= 6 ErrMin= 3.76D-07
 ErrMax= 3.76D-07  0.00D+00 EMaxC= 1.00D-01 BMatC= 6.55D-11 BMatP= 2.58D-10
 IDIUse=1 WtCom= 1.00D+00 WtEn= 0.00D+00
 Coeff-Com: -0.605D-04 0.319D-02 0.260D-02 0.656D-01 0.399D+00 0.530D+00
 Coeff:     -0.605D-04 0.319D-02 0.260D-02 0.656D-01 0.399D+00 0.530D+00
 Gap=     0.146 Goal=   None    Shift=    0.000
 RMSDP=2.75D-08 MaxDP=1.79D-06 DE=-2.27D-10 OVMax= 3.00D-06

 Cycle  15  Pass 1  IDiag  1:
 RMSU=  1.33D-08    CP:  1.00D+00  1.02D+00  3.68D-01  9.20D-01  9.02D-01
                    CP:  6.35D-01
 E= -1824.40791411738     Delta-E=       -0.000000000065 Rises=F Damp=F
 DIIS: error= 1.27D-07 at cycle   7 NSaved=   7.
 NSaved= 7 IEnMin= 7 EnMin= -1824.40791411738     IErMin= 7 ErrMin= 1.27D-07
 ErrMax= 1.27D-07  0.00D+00 EMaxC= 1.00D-01 BMatC= 3.73D-12 BMatP= 6.55D-11
 IDIUse=1 WtCom= 1.00D+00 WtEn= 0.00D+00
 Coeff-Com:  0.193D-04-0.253D-02-0.837D-03 0.268D-01 0.195D+00 0.302D+00
 Coeff-Com:  0.479D+00
 Coeff:      0.193D-04-0.253D-02-0.837D-03 0.268D-01 0.195D+00 0.302D+00
 Coeff:      0.479D+00
 Gap=     0.146 Goal=   None    Shift=    0.000
 RMSDP=6.16D-09 MaxDP=6.57D-07 DE=-6.55D-11 OVMax= 9.81D-07

 SCF Done:  E(RB3LYP) =  -1824.40791412     A.U. after   15 cycles
            NFock= 15  Conv=0.62D-08     -V/T= 2.0130
 KE= 1.800934128757D+03 PE=-1.432248629771D+04 EE= 5.646665507596D+03
 Leave Link  502 at Fri Jan 17 13:02:30 2020, MaxMem=  6710886400 cpu:            1535.2 elap:             384.3
 (Enter /apps/gaussian/g16-a03/l601.exe)
 Copying SCF densities to generalized density rwf, IOpCl= 0 IROHF=0.
 Hyperfine terms turned off by default for NAtoms > 100.

 **********************************************************************

            Population analysis using the SCF density.

 **********************************************************************

 Orbital symmetries:
       Occupied  (A) (A) (A) (A) (A) (A) (A) (A) (A) (A) (A) (A)
                 (A) (A) (A) (A) (A) (A) (A) (A) (A) (A) (A) (A)
                 (A) (A) (A) (A) (A) (A) (A) (A) (A) (A) (A) (A)
                 (A) (A) (A) (A) (A) (A) (A) (A) (A) (A) (A) (A)
                 (A) (A) (A) (A) (A) (A) (A) (A) (A) (A) (A) (A)
                 (A) (A) (A) (A) (A) (A) (A) (A) (A) (A) (A) (A)
                 (A) (A) (A) (A) (A) (A) (A) (A) (A) (A) (A) (A)
                 (A) (A) (A) (A) (A) (A) (A) (A) (A) (A) (A) (A)
                 (A) (A) (A) (A) (A) (A) (A) (A) (A) (A) (A) (A)
                 (A) (A) (A) (A) (A) (A) (A) (A) (A) (A) (A) (A)
                 (A) (A) (A) (A) (A) (A) (A) (A) (A) (A) (A) (A)
                 (A) (A) (A) (A) (A) (A) (A) (A) (A) (A) (A) (A)
                 (A) (A) (A) (A) (A) (A) (A) (A) (A) (A) (A) (A)
                 (A) (A) (A) (A) (A) (A) (A) (A) (A) (A) (A) (A)
                 (A) (A) (A) (A) (A) (A) (A) (A) (A) (A) (A) (A)
                 (A) (A) (A)
       Virtual   (A) (A) (A) (A) (A) (A) (A) (A) (A) (A) (A) (A)
                 (A) (A) (A) (A) (A) (A) (A) (A) (A) (A) (A) (A)
                 (A) (A) (A) (A) (A) (A) (A) (A) (A) (A) (A) (A)
                 (A) (A) (A) (A) (A) (A) (A) (A) (A) (A) (A) (A)
                 (A) (A) (A) (A) (A) (A) (A) (A) (A) (A) (A) (A)
                 (A) (A) (A) (A) (A) (A) (A) (A) (A) (A) (A) (A)
                 (A) (A) (A) (A) (A) (A) (A) (A) (A) (A) (A) (A)
                 (A) (A) (A) (A) (A) (A) (A) (A) (A) (A) (A) (A)
                 (A) (A) (A) (A) (A) (A) (A) (A) (A) (A) (A) (A)
                 (A) (A) (A) (A) (A) (A) (A) (A) (A) (A) (A) (A)
                 (A) (A) (A) (A) (A) (A) (A) (A) (A) (A) (A) (A)
                 (A) (A) (A) (A) (A) (A) (A) (A) (A) (A) (A) (A)
                 (A) (A) (A) (A) (A) (A) (A) (A) (A) (A) (A) (A)
                 (A) (A) (A) (A) (A) (A) (A) (A) (A) (A) (A) (A)
                 (A) (A) (A) (A) (A) (A) (A) (A) (A) (A) (A) (A)
                 (A) (A) (A) (A) (A) (A) (A) (A) (A) (A) (A) (A)
                 (A) (A) (A) (A) (A) (A) (A) (A) (A) (A) (A) (A)
                 (A) (A) (A) (A) (A) (A) (A) (A) (A) (A) (A) (A)
                 (A) (A) (A) (A) (A) (A) (A) (A) (A) (A) (A) (A)
                 (A) (A) (A) (A) (A) (A) (A) (A) (A) (A) (A) (A)
                 (A) (A) (A) (A) (A) (A) (A) (A) (A) (A) (A) (A)
                 (A) (A) (A) (A) (A) (A) (A) (A) (A) (A) (A) (A)
                 (A) (A) (A) (A) (A) (A) (A) (A) (A) (A) (A) (A)
                 (A) (A) (A) (A) (A) (A) (A) (A) (A) (A) (A) (A)
                 (A) (A) (A) (A) (A) (A) (A) (A) (A) (A) (A) (A)
                 (A) (A) (A) (A) (A) (A) (A) (A) (A) (A) (A) (A)
                 (A) (A) (A) (A) (A) (A) (A) (A) (A) (A) (A) (A)
                 (A) (A) (A) (A) (A) (A) (A) (A) (A) (A) (A) (A)
                 (A) (A) (A) (A) (A) (A) (A) (A) (A) (A) (A) (A)
                 (A) (A) (A) (A) (A) (A) (A) (A) (A) (A) (A) (A)
                 (A) (A) (A) (A) (A) (A) (A) (A) (A) (A) (A) (A)
                 (A) (A) (A) (A) (A) (A) (A) (A) (A) (A) (A) (A)
                 (A) (A) (A) (A) (A) (A) (A) (A) (A) (A) (A) (A)
                 (A) (A) (A) (A) (A)
 The electronic state is 1-A.
 Alpha  occ. eigenvalues --  -19.16439 -19.15840 -10.24780 -10.24259 -10.23606
 Alpha  occ. eigenvalues --  -10.22385 -10.21466 -10.21259 -10.19431 -10.19131
 Alpha  occ. eigenvalues --  -10.19111 -10.18866 -10.17610 -10.17300 -10.16984
 Alpha  occ. eigenvalues --  -10.16670 -10.16499 -10.16457 -10.16313 -10.16305
 Alpha  occ. eigenvalues --  -10.16256 -10.16202 -10.16196 -10.16166 -10.16128
 Alpha  occ. eigenvalues --  -10.16046 -10.16000 -10.15933 -10.15908 -10.15874
 Alpha  occ. eigenvalues --  -10.15861 -10.15854 -10.15837 -10.15798 -10.15753
 Alpha  occ. eigenvalues --  -10.15732 -10.15671 -10.15640 -10.15540 -10.15494
 Alpha  occ. eigenvalues --  -10.15466 -10.14805 -10.14115 -10.13758  -1.10474
 Alpha  occ. eigenvalues --   -1.06936  -0.89680  -0.88086  -0.82369  -0.81428
 Alpha  occ. eigenvalues --   -0.81053  -0.80471  -0.79693  -0.78772  -0.77644
 Alpha  occ. eigenvalues --   -0.77259  -0.76464  -0.75060  -0.73854  -0.73692
 Alpha  occ. eigenvalues --   -0.72799  -0.71428  -0.70875  -0.70074  -0.69674
 Alpha  occ. eigenvalues --   -0.69218  -0.68377  -0.68115  -0.67722  -0.67370
 Alpha  occ. eigenvalues --   -0.67027  -0.66604  -0.65836  -0.64558  -0.62874
 Alpha  occ. eigenvalues --   -0.62658  -0.61059  -0.60426  -0.58974  -0.58891
 Alpha  occ. eigenvalues --   -0.58681  -0.58153  -0.57779  -0.56796  -0.56256
 Alpha  occ. eigenvalues --   -0.56143  -0.55896  -0.55177  -0.54621  -0.53814
 Alpha  occ. eigenvalues --   -0.52944  -0.50046  -0.49389  -0.48864  -0.48755
 Alpha  occ. eigenvalues --   -0.48168  -0.47378  -0.47264  -0.46486  -0.45702
 Alpha  occ. eigenvalues --   -0.45345  -0.44896  -0.44617  -0.44577  -0.44364
 Alpha  occ. eigenvalues --   -0.43752  -0.43456  -0.43235  -0.42925  -0.42703
 Alpha  occ. eigenvalues --   -0.42217  -0.41651  -0.41338  -0.41198  -0.41071
 Alpha  occ. eigenvalues --   -0.40959  -0.40877  -0.40815  -0.40637  -0.40449
 Alpha  occ. eigenvalues --   -0.40354  -0.40196  -0.40170  -0.39963  -0.39774
 Alpha  occ. eigenvalues --   -0.39530  -0.39379  -0.39122  -0.38889  -0.38780
 Alpha  occ. eigenvalues --   -0.38601  -0.38495  -0.38391  -0.38198  -0.38164
 Alpha  occ. eigenvalues --   -0.37979  -0.37639  -0.37173  -0.36769  -0.36633
 Alpha  occ. eigenvalues --   -0.36437  -0.36165  -0.35959  -0.35522  -0.35488
 Alpha  occ. eigenvalues --   -0.34747  -0.34461  -0.34135  -0.33977  -0.33775
 Alpha  occ. eigenvalues --   -0.33576  -0.33268  -0.33033  -0.32801  -0.32719
 Alpha  occ. eigenvalues --   -0.32542  -0.32471  -0.32379  -0.32120  -0.32031
 Alpha  occ. eigenvalues --   -0.31831  -0.31659  -0.31497  -0.31318  -0.31289
 Alpha  occ. eigenvalues --   -0.30872  -0.30673  -0.30488  -0.30266  -0.29735
 Alpha  occ. eigenvalues --   -0.28935  -0.28789  -0.28616  -0.27963  -0.27275
 Alpha  occ. eigenvalues --   -0.27220  -0.27202  -0.26880  -0.26267  -0.25324
 Alpha  occ. eigenvalues --   -0.23313  -0.22982  -0.18184
 Alpha virt. eigenvalues --   -0.03594   0.00817   0.01763   0.03124   0.04164
 Alpha virt. eigenvalues --    0.05504   0.05676   0.06072   0.06817   0.07585
 Alpha virt. eigenvalues --    0.07905   0.08197   0.08716   0.09214   0.10742
 Alpha virt. eigenvalues --    0.10927   0.11346   0.11415   0.11516   0.11688
 Alpha virt. eigenvalues --    0.11826   0.11935   0.12105   0.12371   0.12433
 Alpha virt. eigenvalues --    0.12668   0.12858   0.12977   0.13216   0.13315
 Alpha virt. eigenvalues --    0.13672   0.13886   0.14372   0.14532   0.14890
 Alpha virt. eigenvalues --    0.15059   0.15182   0.15411   0.15637   0.16049
 Alpha virt. eigenvalues --    0.16095   0.16255   0.16298   0.16582   0.16704
 Alpha virt. eigenvalues --    0.16897   0.16987   0.17546   0.17662   0.17761
 Alpha virt. eigenvalues --    0.17926   0.18079   0.18128   0.18485   0.18832
 Alpha virt. eigenvalues --    0.18992   0.19217   0.19345   0.19517   0.19805
 Alpha virt. eigenvalues --    0.19960   0.20055   0.20223   0.20462   0.20678
 Alpha virt. eigenvalues --    0.20768   0.20860   0.20885   0.21103   0.21365
 Alpha virt. eigenvalues --    0.21419   0.21639   0.21940   0.22044   0.22171
 Alpha virt. eigenvalues --    0.22252   0.22474   0.22518   0.22690   0.22812
 Alpha virt. eigenvalues --    0.22977   0.23029   0.23159   0.23337   0.23356
 Alpha virt. eigenvalues --    0.23600   0.23772   0.23881   0.24088   0.24271
 Alpha virt. eigenvalues --    0.24337   0.24534   0.24583   0.24858   0.24945
 Alpha virt. eigenvalues --    0.24987   0.25331   0.25438   0.25723   0.26136
 Alpha virt. eigenvalues --    0.26221   0.26333   0.26393   0.26514   0.26774
 Alpha virt. eigenvalues --    0.27098   0.27104   0.27274   0.27411   0.27512
 Alpha virt. eigenvalues --    0.27630   0.27734   0.27977   0.28441   0.28600
 Alpha virt. eigenvalues --    0.28665   0.28766   0.28906   0.29050   0.29241
 Alpha virt. eigenvalues --    0.29319   0.29481   0.29626   0.29771   0.29827
 Alpha virt. eigenvalues --    0.30004   0.30342   0.30486   0.30599   0.30883
 Alpha virt. eigenvalues --    0.31009   0.31220   0.31238   0.31602   0.31703
 Alpha virt. eigenvalues --    0.31939   0.31985   0.32086   0.32274   0.32480
 Alpha virt. eigenvalues --    0.32643   0.32744   0.33047   0.33205   0.33594
 Alpha virt. eigenvalues --    0.33753   0.34118   0.34252   0.34516   0.34720
 Alpha virt. eigenvalues --    0.35014   0.35274   0.35402   0.35487   0.35562
 Alpha virt. eigenvalues --    0.35697   0.35906   0.36063   0.36316   0.36427
 Alpha virt. eigenvalues --    0.36667   0.36841   0.37118   0.37323   0.37712
 Alpha virt. eigenvalues --    0.38161   0.38201   0.38456   0.38789   0.38911
 Alpha virt. eigenvalues --    0.38934   0.39242   0.39320   0.39447   0.39771
 Alpha virt. eigenvalues --    0.40241   0.40479   0.40669   0.40781   0.40874
 Alpha virt. eigenvalues --    0.41146   0.41443   0.41832   0.41933   0.42305
 Alpha virt. eigenvalues --    0.42516   0.42681   0.43152   0.43347   0.43533
 Alpha virt. eigenvalues --    0.44021   0.44147   0.44609   0.44821   0.45129
 Alpha virt. eigenvalues --    0.45461   0.46160   0.46303   0.46504   0.46781
 Alpha virt. eigenvalues --    0.46976   0.47398   0.47966   0.48126   0.48166
 Alpha virt. eigenvalues --    0.48622   0.48961   0.49195   0.49295   0.49978
 Alpha virt. eigenvalues --    0.50367   0.50912   0.51007   0.51255   0.51494
 Alpha virt. eigenvalues --    0.51891   0.52108   0.52499   0.52880   0.53273
 Alpha virt. eigenvalues --    0.53434   0.53702   0.53948   0.54320   0.54435
 Alpha virt. eigenvalues --    0.55009   0.55485   0.55970   0.56230   0.56287
 Alpha virt. eigenvalues --    0.56591   0.56844   0.57204   0.57415   0.57797
 Alpha virt. eigenvalues --    0.57855   0.58360   0.58975   0.59120   0.59693
 Alpha virt. eigenvalues --    0.59889   0.60412   0.61327   0.61807   0.62547
 Alpha virt. eigenvalues --    0.63256   0.63771   0.64383   0.64718   0.65395
 Alpha virt. eigenvalues --    0.65991   0.66610   0.67997   0.68903   0.69571
 Alpha virt. eigenvalues --    0.70637   0.71827   0.72814   0.73215   0.74605
 Alpha virt. eigenvalues --    0.75900   0.76328   0.78092   0.80220   0.81410
 Alpha virt. eigenvalues --    0.83271   0.84805   0.88199   0.88806   0.90590
 Alpha virt. eigenvalues --    0.92081   0.95279   0.96502   0.98583   0.99537
 Alpha virt. eigenvalues --    1.00445   1.00656   1.02164   1.02431   1.02644
 Alpha virt. eigenvalues --    1.03197   1.03304   1.04711   1.05065   1.05537
 Alpha virt. eigenvalues --    1.06186   1.06403   1.06819   1.07797   1.08003
 Alpha virt. eigenvalues --    1.08752   1.09318   1.09562   1.09728   1.10793
 Alpha virt. eigenvalues --    1.11217   1.11414   1.12239   1.12707   1.12808
 Alpha virt. eigenvalues --    1.13289   1.13695   1.13842   1.14089   1.14266
 Alpha virt. eigenvalues --    1.14307   1.14404   1.14575   1.14645   1.14938
 Alpha virt. eigenvalues --    1.15092   1.15199   1.15234   1.15928   1.15977
 Alpha virt. eigenvalues --    1.16232   1.16329   1.16749   1.16870   1.17034
 Alpha virt. eigenvalues --    1.17239   1.17284   1.17440   1.17764   1.17942
 Alpha virt. eigenvalues --    1.18250   1.18349   1.18543   1.18648   1.19055
 Alpha virt. eigenvalues --    1.19249   1.19587   1.19834   1.19918   1.20227
 Alpha virt. eigenvalues --    1.20892   1.21700   1.21922   1.22283   1.22594
 Alpha virt. eigenvalues --    1.22890   1.23152   1.23335   1.23691   1.24203
 Alpha virt. eigenvalues --    1.24322   1.24650   1.24728   1.24795   1.25405
 Alpha virt. eigenvalues --    1.25575   1.26184   1.26560   1.27258   1.28365
 Alpha virt. eigenvalues --    1.28732   1.29903   1.30759   1.31609   1.32018
 Alpha virt. eigenvalues --    1.32319   1.33376   1.33723   1.35035   1.35085
 Alpha virt. eigenvalues --    1.36204   1.36567   1.38434   1.38917   1.39752
 Alpha virt. eigenvalues --    1.39986   1.41492   1.42115   1.43354   1.43873
 Alpha virt. eigenvalues --    1.44260   1.45513   1.47465   1.47843   1.48551
 Alpha virt. eigenvalues --    1.50407   1.52718   1.53513   1.55529   1.55833
 Alpha virt. eigenvalues --    1.57399   1.58379   1.60833   1.62965   1.63993
 Alpha virt. eigenvalues --    1.65239   1.65579   1.69024   1.69453   1.70403
 Alpha virt. eigenvalues --    2.07053   2.08339  13.84818  13.89313  15.09138
 Alpha virt. eigenvalues --   16.39416
          Condensed to atoms (all electrons):
 Mulliken charges:
               1
     1  C   -0.319203
     2  C    0.354547
     3  C   -0.215958
     4  C   -0.594757
     5  S    0.306882
     6  O   -0.305391
     7  H    0.238397
     8  C   -0.248860
     9  C    0.266732
    10  C   -0.144687
    11  C   -0.640788
    12  S    0.309862
    13  O   -0.247658
    14  H    0.228350
    15  C   -0.253193
    16  H    0.189269
    17  H    0.232383
    18  C   -0.407433
    19  H    0.204325
    20  H    0.213467
    21  C   -0.357931
    22  H    0.206392
    23  H    0.187104
    24  C   -0.403843
    25  H    0.197235
    26  H    0.181042
    27  C   -0.379003
    28  H    0.201449
    29  H    0.192329
    30  C   -0.379209
    31  H    0.193289
    32  H    0.184378
    33  C   -0.402313
    34  H    0.190457
    35  H    0.190285
    36  C   -0.350976
    37  H    0.202544
    38  H    0.183315
    39  C   -0.395132
    40  H    0.191374
    41  H    0.188629
    42  C   -0.370570
    43  H    0.186202
    44  H    0.185955
    45  C   -0.366610
    46  H    0.212393
    47  H    0.185834
    48  C   -0.381807
    49  H    0.193355
    50  H    0.188295
    51  C   -0.363679
    52  H    0.194221
    53  H    0.192019
    54  C   -0.668777
    55  H    0.209514
    56  H    0.199448
    57  H    0.204671
    58  C   -0.280819
    59  H    0.232241
    60  H    0.186355
    61  C   -0.410618
    62  H    0.198373
    63  H    0.188361
    64  C   -0.394024
    65  H    0.209817
    66  H    0.200993
    67  C   -0.367369
    68  H    0.193693
    69  H    0.201572
    70  C   -0.381592
    71  H    0.180713
    72  H    0.191169
    73  C   -0.402710
    74  H    0.186063
    75  H    0.190949
    76  C   -0.344168
    77  H    0.199990
    78  H    0.179721
    79  C   -0.384769
    80  H    0.186606
    81  H    0.210563
    82  C   -0.399975
    83  H    0.194639
    84  H    0.183851
    85  C   -0.386600
    86  H    0.190031
    87  H    0.192310
    88  C   -0.356973
    89  H    0.180788
    90  H    0.197786
    91  C   -0.356810
    92  H    0.181169
    93  H    0.184868
    94  C   -0.343424
    95  H    0.186635
    96  H    0.186201
    97  C   -0.665224
    98  H    0.199161
    99  H    0.205381
   100  H    0.199401
   101  Sn   1.191229
   102  C   -0.978737
   103  H    0.227471
   104  H    0.236745
   105  H    0.242617
   106  C   -1.006500
   107  H    0.235977
   108  H    0.238957
   109  H    0.221141
   110  C   -0.978568
   111  H    0.236429
   112  H    0.227592
   113  H    0.241195
   114  Sn   1.207611
   115  C   -0.980336
   116  H    0.234263
   117  H    0.231941
   118  H    0.226566
   119  C   -0.973734
   120  H    0.223786
   121  H    0.226342
   122  H    0.226805
   123  C   -0.998191
   124  H    0.237113
   125  H    0.229098
   126  H    0.240700
 Sum of Mulliken charges =  -0.00000
 Mulliken charges with hydrogens summed into heavy atoms:
               1
     1  C   -0.319203
     2  C    0.354547
     3  C    0.022439
     4  C   -0.594757
     5  S    0.306882
     6  O   -0.305391
     8  C   -0.248860
     9  C    0.266732
    10  C    0.083663
    11  C   -0.640788
    12  S    0.309862
    13  O   -0.247658
    15  C    0.168459
    18  C    0.010359
    21  C    0.035564
    24  C   -0.025566
    27  C    0.014774
    30  C   -0.001542
    33  C   -0.021571
    36  C    0.034883
    39  C   -0.015130
    42  C    0.001586
    45  C    0.031618
    48  C   -0.000157
    51  C    0.022561
    54  C   -0.055144
    58  C    0.137777
    61  C   -0.023884
    64  C    0.016786
    67  C    0.027896
    70  C   -0.009711
    73  C   -0.025698
    76  C    0.035543
    79  C    0.012401
    82  C   -0.021485
    85  C   -0.004260
    88  C    0.021601
    91  C    0.009226
    94  C    0.029411
    97  C   -0.061281
   101  Sn   1.191229
   102  C   -0.271904
   106  C   -0.310425
   110  C   -0.273352
   114  Sn   1.207611
   115  C   -0.287565
   119  C   -0.296801
   123  C   -0.291280
 Electronic spatial extent (au):  <R**2>=         117168.1797
 Charge=              0.0000 electrons
 Dipole moment (field-independent basis, Debye):
    X=             -1.8058    Y=              1.0047    Z=              1.6314  Tot=              2.6328
 Quadrupole moment (field-independent basis, Debye-Ang):
   XX=           -322.1710   YY=           -326.5502   ZZ=           -339.6846
   XY=            -14.9991   XZ=             -1.0184   YZ=             -1.0345
 Traceless Quadrupole moment (field-independent basis, Debye-Ang):
   XX=              7.2976   YY=              2.9184   ZZ=            -10.2159
   XY=            -14.9991   XZ=             -1.0184   YZ=             -1.0345
 Octapole moment (field-independent basis, Debye-Ang**2):
  XXX=           -170.2133  YYY=             85.3274  ZZZ=            -35.0140  XYY=              2.4459
  XXY=             44.2247  XXZ=            -60.1813  XZZ=             10.8035  YZZ=             11.3841
  YYZ=             -8.6487  XYZ=              7.4277
 Hexadecapole moment (field-independent basis, Debye-Ang**3):
 XXXX=        -149381.7267 YYYY=         -17935.0865 ZZZZ=          -2272.6516 XXXY=           -619.4245
 XXXZ=           -560.0746 YYYX=           -625.9502 YYYZ=            -14.2172 ZZZX=             -2.4328
 ZZZY=             11.7791 XXYY=         -27316.8839 XXZZ=         -24180.9612 YYZZ=          -3592.9550
 XXYZ=            -13.7735 YYXZ=            -30.1298 ZZXY=           -123.2648
 N-N= 5.050478747240D+03 E-N=-1.432248631493D+04  KE= 1.800934128757D+03
 Leave Link  601 at Fri Jan 17 13:02:30 2020, MaxMem=  6710886400 cpu:               1.1 elap:               0.3
 (Enter /apps/gaussian/g16-a03/l602.exe)
 FitSet:  NAtFit=   126 NAtPot=   126 NAtFrz=     0 MDM=   130 TotChg=   0.00000
 UFF atomic radii scaled by 1 / 1.20 used.

 **********************************************************************

            Electrostatic Properties Using The SCF Density

 **********************************************************************

       Atomic Center    1 is at  -0.076238  0.756512 -0.232181
       Atomic Center    2 is at  -1.372326  1.166221  0.038483
       Atomic Center    3 is at  -1.547419  2.578875  0.059598
       Atomic Center    4 is at  -0.384555  3.244296 -0.195003
       Atomic Center    5 is at   0.941989  2.171371 -0.464588
       Atomic Center    6 is at  -2.342832  0.232611  0.254253
       Atomic Center    7 is at  -2.487657  3.074152  0.252673
       Atomic Center    8 is at   0.431549 -0.592471 -0.324695
       Atomic Center    9 is at   1.727637 -1.002180 -0.595359
       Atomic Center   10 is at   1.903697 -2.414681 -0.616682
       Atomic Center   11 is at   0.739867 -3.080255 -0.361873
       Atomic Center   12 is at  -0.586734 -2.008329 -0.093287
       Atomic Center   13 is at   2.697935 -0.068581 -0.812107
       Atomic Center   14 is at   2.842913 -2.911111 -0.810548
       Atomic Center   15 is at  -3.677438  0.672614  0.519060
       Atomic Center   16 is at  -3.685425  1.275597  1.402942
       Atomic Center   17 is at  -4.033927  1.248859 -0.309045
       Atomic Center   18 is at  -4.590134 -0.550743  0.723960
       Atomic Center   19 is at  -4.587545 -1.150114 -0.162407
       Atomic Center   20 is at  -4.229651 -1.130692  1.547739
       Atomic Center   21 is at  -6.025378 -0.076761  1.018940
       Atomic Center   22 is at  -6.659793 -0.926771  1.160018
       Atomic Center   23 is at  -6.028173  0.521532  1.906035
       Atomic Center   24 is at  -6.543518  0.759502 -0.165878
       Atomic Center   25 is at  -6.285181  1.787137 -0.017119
       Atomic Center   26 is at  -6.098031  0.407424 -1.072786
       Atomic Center   27 is at  -8.074637  0.623469 -0.259529
       Atomic Center   28 is at  -8.515618  0.907046  0.673219
       Atomic Center   29 is at  -8.442480  1.260772 -1.036341
       Atomic Center   30 is at  -8.441653 -0.837942 -0.577611
       Atomic Center   31 is at  -7.783895 -1.214595 -1.332851
       Atomic Center   32 is at  -8.344728 -1.430846  0.307810
       Atomic Center   33 is at  -9.894846 -0.903916 -1.083058
       Atomic Center   34 is at -10.176889 -1.926209 -1.225424
       Atomic Center   35 is at  -9.973373 -0.379514 -2.012432
       Atomic Center   36 is at -10.829088 -0.253298 -0.046000
       Atomic Center   37 is at -10.787011  0.811162 -0.146265
       Atomic Center   38 is at -10.517212 -0.531364  0.939045
       Atomic Center   39 is at -12.272755 -0.734501 -0.282363
       Atomic Center   40 is at -12.557604 -0.525285 -1.292308
       Atomic Center   41 is at -12.330758 -1.788345 -0.106439
       Atomic Center   42 is at -13.222972 -0.000073  0.681640
       Atomic Center   43 is at -13.169829  1.053280  0.501299
       Atomic Center   44 is at -12.934133 -0.204049  1.691524
       Atomic Center   45 is at -14.665385 -0.488112  0.451722
       Atomic Center   46 is at -14.720212 -1.540054  0.639640
       Atomic Center   47 is at -14.951484 -0.291206 -0.560343
       Atomic Center   48 is at -15.617119  0.254460  1.407959
       Atomic Center   49 is at -15.563287  1.306291  1.219135
       Atomic Center   50 is at -15.330204  0.058629  2.420001
       Atomic Center   51 is at -17.059274 -0.234968  1.179376
       Atomic Center   52 is at -17.720999  0.283420  1.841413
       Atomic Center   53 is at -17.344997 -0.042215  0.166405
       Atomic Center   54 is at -17.137810 -1.747906  1.455873
       Atomic Center   55 is at -16.838248 -2.286370  0.581105
       Atomic Center   56 is at -16.486890 -1.996327  2.267963
       Atomic Center   57 is at -18.142858 -2.012216  1.710662
       Atomic Center   58 is at   3.550391 -0.875722  0.004436
       Atomic Center   59 is at   3.012938 -1.197783  0.871800
       Atomic Center   60 is at   3.873326 -1.730221 -0.552738
       Atomic Center   61 is at   4.777167 -0.051581  0.437349
       Atomic Center   62 is at   4.532126  0.523470  1.305779
       Atomic Center   63 is at   5.588359 -0.711568  0.663813
       Atomic Center   64 is at   5.189111  0.894803 -0.705569
       Atomic Center   65 is at   4.694588  1.835985 -0.585054
       Atomic Center   66 is at   4.910424  0.463065 -1.644097
       Atomic Center   67 is at   6.713898  1.107969 -0.671156
       Atomic Center   68 is at   6.988211  1.840380 -1.401380
       Atomic Center   69 is at   7.004747  1.447271  0.301048
       Atomic Center   70 is at   7.425273 -0.221330 -0.985016
       Atomic Center   71 is at   7.385403 -0.858592 -0.126408
       Atomic Center   72 is at   6.938023 -0.700946 -1.808094
       Atomic Center   73 is at   8.895307  0.056838 -1.350013
       Atomic Center   74 is at   9.410582 -0.870915 -1.486635
       Atomic Center   75 is at   8.936563  0.624530 -2.256062
       Atomic Center   76 is at   9.564351  0.853227 -0.214344
       Atomic Center   77 is at   9.295683  1.885689 -0.296431
       Atomic Center   78 is at   9.234970  0.472963  0.730012
       Atomic Center   79 is at  11.094140  0.710937 -0.319697
       Atomic Center   80 is at  11.414835  1.019149 -1.292867
       Atomic Center   81 is at  11.369115 -0.310803 -0.160522
       Atomic Center   82 is at  11.766610  1.595594  0.746496
       Atomic Center   83 is at  11.502038  2.618833  0.579515
       Atomic Center   84 is at  11.435931  1.295821  1.718960
       Atomic Center   85 is at  13.295796  1.438999  0.653392
       Atomic Center   86 is at  13.625201  1.728444 -0.322628
       Atomic Center   87 is at  13.763441  2.061951  1.386972
       Atomic Center   88 is at  13.677826 -0.030764  0.909221
       Atomic Center   89 is at  13.039650 -0.438810  1.664952
       Atomic Center   90 is at  13.563704 -0.591511  0.005097
       Atomic Center   91 is at  15.142604 -0.106190  1.378623
       Atomic Center   92 is at  15.241843  0.393765  2.319418
       Atomic Center   93 is at  15.773729  0.366387  0.655262
       Atomic Center   94 is at  15.556200 -1.581338  1.535082
       Atomic Center   95 is at  15.443807 -2.084634  0.597553
       Atomic Center   96 is at  14.934066 -2.050328  2.268496
       Atomic Center   97 is at  17.026965 -1.657118  1.985313
       Atomic Center   98 is at  17.139872 -1.151526  2.921544
       Atomic Center   99 is at  17.313550 -2.682002  2.096590
       Atomic Center  100 is at  17.649367 -1.190479  1.250627
       Atomic Center  101 is at  -0.419891  5.383504 -0.212870
       Atomic Center  102 is at  -1.641811  6.264397 -1.774977
       Atomic Center  103 is at  -2.671747  6.222796 -1.488238
       Atomic Center  104 is at  -1.353980  7.285087 -1.920329
       Atomic Center  105 is at  -1.502783  5.721152 -2.685751
       Atomic Center  106 is at   1.677113  5.714652 -0.662106
       Atomic Center  107 is at   2.279999  5.282784  0.109319
       Atomic Center  108 is at   1.917405  5.259369 -1.600504
       Atomic Center  109 is at   1.868757  6.766227 -0.716831
       Atomic Center  110 is at  -0.905437  6.303855  1.691452
       Atomic Center  111 is at  -0.635605  7.339474  1.666305
       Atomic Center  112 is at  -1.956280  6.213700  1.873791
       Atomic Center  113 is at  -0.364719  5.813673  2.472658
       Atomic Center  114 is at   0.647910 -5.218265 -0.319024
       Atomic Center  115 is at  -0.268288 -6.226396  1.370549
       Atomic Center  116 is at  -1.331748 -6.220107  1.255937
       Atomic Center  117 is at   0.079591 -7.237474  1.413463
       Atomic Center  118 is at  -0.003599 -5.719247  2.274695
       Atomic Center  119 is at  -0.662986 -5.985518 -1.869030
       Atomic Center  120 is at  -0.490247 -7.034044 -1.995005
       Atomic Center  121 is at  -1.681681 -5.822913 -1.587002
       Atomic Center  122 is at  -0.462272 -5.477835 -2.789534
       Atomic Center  123 is at   2.539360 -6.207023 -0.710592
       Atomic Center  124 is at   2.903674 -5.912201 -1.671607
       Atomic Center  125 is at   3.248627 -5.930013  0.041411
       Atomic Center  126 is at   2.397073 -7.267448 -0.692833
    4576 points will be used for fitting atomic charges
 Fitting point charges to electrostatic potential
 Charges from ESP fit, RMS=   0.00156 RRMS=   0.18296:
 ESP charges:
               1
     1  C   -0.127761
     2  C    0.547222
     3  C   -0.447982
     4  C   -0.296754
     5  S    0.003830
     6  O   -0.570464
     7  H    0.178404
     8  C   -0.074529
     9  C    0.622656
    10  C   -0.623273
    11  C   -0.195411
    12  S   -0.076870
    13  O   -0.513076
    14  H    0.256099
    15  C    0.522258
    16  H   -0.013875
    17  H   -0.017314
    18  C   -0.361937
    19  H    0.123676
    20  H    0.108566
    21  C   -0.048246
    22  H    0.045020
    23  H    0.053524
    24  C   -0.176407
    25  H    0.032280
    26  H    0.075327
    27  C    0.026156
    28  H   -0.005133
    29  H    0.031220
    30  C   -0.100367
    31  H    0.054505
    32  H    0.069223
    33  C   -0.239691
    34  H    0.036650
    35  H    0.073669
    36  C    0.279738
    37  H   -0.048446
    38  H   -0.023925
    39  C   -0.131728
    40  H    0.020084
    41  H    0.041673
    42  C   -0.254100
    43  H    0.066265
    44  H    0.042209
    45  C    0.324787
    46  H   -0.046566
    47  H   -0.033520
    48  C   -0.229822
    49  H    0.029244
    50  H    0.066861
    51  C    0.083846
    52  H    0.011881
    53  H    0.007334
    54  C   -0.349441
    55  H    0.072964
    56  H    0.101978
    57  H    0.084816
    58  C    0.251222
    59  H    0.021139
    60  H    0.045999
    61  C   -0.122649
    62  H    0.087833
    63  H   -0.020373
    64  C   -0.242505
    65  H    0.085843
    66  H    0.104165
    67  C    0.048468
    68  H    0.026339
    69  H    0.007673
    70  C   -0.045318
    71  H    0.081097
    72  H    0.037613
    73  C   -0.285130
    74  H    0.054758
    75  H    0.091928
    76  C    0.034862
    77  H   -0.002716
    78  H    0.027059
    79  C    0.089867
    80  H    0.004504
    81  H   -0.022829
    82  C   -0.161708
    83  H    0.032623
    84  H    0.032273
    85  C    0.046322
    86  H    0.005009
    87  H   -0.019232
    88  C    0.010044
    89  H    0.020049
    90  H   -0.002717
    91  C   -0.127219
    92  H    0.046515
    93  H    0.020195
    94  C    0.262923
    95  H   -0.035855
    96  H   -0.050515
    97  C   -0.416816
    98  H    0.093790
    99  H    0.090799
   100  H    0.098080
   101  Sn   1.124447
   102  C   -0.813741
   103  H    0.181048
   104  H    0.190065
   105  H    0.185074
   106  C   -0.814670
   107  H    0.189070
   108  H    0.184548
   109  H    0.162668
   110  C   -0.819696
   111  H    0.190905
   112  H    0.183870
   113  H    0.183828
   114  Sn   1.104005
   115  C   -0.769655
   116  H    0.180823
   117  H    0.174800
   118  H    0.147237
   119  C   -0.721229
   120  H    0.152811
   121  H    0.154909
   122  H    0.136324
   123  C   -0.861277
   124  H    0.196766
   125  H    0.176748
   126  H    0.209589
 Sum of ESP charges =  -0.00000
 ESP charges with hydrogens summed into heavy atoms:
               1
     1  C   -0.127761
     2  C    0.547222
     3  C   -0.269577
     4  C   -0.296754
     5  S    0.003830
     6  O   -0.570464
     8  C   -0.074529
     9  C    0.622656
    10  C   -0.367174
    11  C   -0.195411
    12  S   -0.076870
    13  O   -0.513076
    15  C    0.491069
    18  C   -0.129694
    21  C    0.050298
    24  C   -0.068800
    27  C    0.052242
    30  C    0.023361
    33  C   -0.129372
    36  C    0.207368
    39  C   -0.069971
    42  C   -0.145626
    45  C    0.244700
    48  C   -0.133718
    51  C    0.103061
    54  C   -0.089683
    58  C    0.318359
    61  C   -0.055190
    64  C   -0.052497
    67  C    0.082480
    70  C    0.073391
    73  C   -0.138444
    76  C    0.059206
    79  C    0.071543
    82  C   -0.096812
    85  C    0.032098
    88  C    0.027376
    91  C   -0.060510
    94  C    0.176552
    97  C   -0.134147
   101  Sn   1.124447
   102  C   -0.257554
   106  C   -0.278384
   110  C   -0.261092
   114  Sn   1.104005
   115  C   -0.266796
   119  C   -0.277185
   123  C   -0.278174
 Charge=  -0.00000 Dipole=    -1.8400     0.9988     1.6298 Tot=     2.6532
 -----------------------------------------------------------------

              Electrostatic Properties (Atomic Units)

 -----------------------------------------------------------------
    Center     Electric         -------- Electric Field --------
               Potential          X             Y             Z
 -----------------------------------------------------------------
    1 Atom    -14.739789
    2 Atom    -14.702024
    3 Atom    -14.761922
    4 Atom    -14.768760
    5 Atom     -3.648499
    6 Atom    -22.331106
    7 Atom     -1.084813
    8 Atom    -14.738279
    9 Atom    -14.711136
   10 Atom    -14.763227
   11 Atom    -14.762970
   12 Atom     -3.649890
   13 Atom    -22.331699
   14 Atom     -1.082840
   15 Atom    -14.711656
   16 Atom     -1.106691
   17 Atom     -1.108316
   18 Atom    -14.772203
   19 Atom     -1.127239
   20 Atom     -1.129060
   21 Atom    -14.774923
   22 Atom     -1.127487
   23 Atom     -1.125975
   24 Atom    -14.778624
   25 Atom     -1.129909
   26 Atom     -1.129563
   27 Atom    -14.781568
   28 Atom     -1.132447
   29 Atom     -1.133793
   30 Atom    -14.783274
   31 Atom     -1.135962
   32 Atom     -1.133313
   33 Atom    -14.785159
   34 Atom     -1.138874
   35 Atom     -1.136235
   36 Atom    -14.786257
   37 Atom     -1.137076
   38 Atom     -1.136167
   39 Atom    -14.786634
   40 Atom     -1.137340
   41 Atom     -1.137413
   42 Atom    -14.786900
   43 Atom     -1.137987
   44 Atom     -1.137435
   45 Atom    -14.787696
   46 Atom     -1.138825
   47 Atom     -1.137338
   48 Atom    -14.786230
   49 Atom     -1.139600
   50 Atom     -1.137735
   51 Atom    -14.782634
   52 Atom     -1.141180
   53 Atom     -1.138212
   54 Atom    -14.792502
   55 Atom     -1.133252
   56 Atom     -1.131827
   57 Atom     -1.133988
   58 Atom    -14.729183
   59 Atom     -1.107915
   60 Atom     -1.107561
   61 Atom    -14.786387
   62 Atom     -1.136101
   63 Atom     -1.129047
   64 Atom    -14.793411
   65 Atom     -1.149660
   66 Atom     -1.147697
   67 Atom    -14.791543
   68 Atom     -1.143195
   69 Atom     -1.142216
   70 Atom    -14.788986
   71 Atom     -1.138101
   72 Atom     -1.141440
   73 Atom    -14.789662
   74 Atom     -1.143141
   75 Atom     -1.140773
   76 Atom    -14.790812
   77 Atom     -1.142112
   78 Atom     -1.140466
   79 Atom    -14.790958
   80 Atom     -1.140059
   81 Atom     -1.141645
   82 Atom    -14.789880
   83 Atom     -1.143161
   84 Atom     -1.140761
   85 Atom    -14.790113
   86 Atom     -1.140630
   87 Atom     -1.143570
   88 Atom    -14.789635
   89 Atom     -1.139717
   90 Atom     -1.140434
   91 Atom    -14.788259
   92 Atom     -1.139415
   93 Atom     -1.139490
   94 Atom    -14.784214
   95 Atom     -1.139768
   96 Atom     -1.139603
   97 Atom    -14.793878
   98 Atom     -1.134563
   99 Atom     -1.135886
  100 Atom     -1.134582
  101 Atom     -1.626472
  102 Atom    -14.790894
  103 Atom     -1.110701
  104 Atom     -1.108740
  105 Atom     -1.112102
  106 Atom    -14.808385
  107 Atom     -1.124948
  108 Atom     -1.125201
  109 Atom     -1.126699
  110 Atom    -14.790546
  111 Atom     -1.108448
  112 Atom     -1.110272
  113 Atom     -1.111657
  114 Atom     -1.629482
  115 Atom    -14.801668
  116 Atom     -1.120420
  117 Atom     -1.117771
  118 Atom     -1.123073
  119 Atom    -14.812133
  120 Atom     -1.127013
  121 Atom     -1.129037
  122 Atom     -1.131660
  123 Atom    -14.794102
  124 Atom     -1.114098
  125 Atom     -1.114661
  126 Atom     -1.111262
 -----------------------------------------------------------------
 Leave Link  602 at Fri Jan 17 13:02:31 2020, MaxMem=  6710886400 cpu:               3.8 elap:               1.0
 (Enter /apps/gaussian/g16-a03/l9999.exe)
 1\1\GINC-CX1-141-15-2\SP\RB3LYP\LANL2DZ\C42H78O2S2Sn2\NS5018\17-Jan-20
 20\0\\#p pop=MKUFF b3lyp/lanl2dz\\OBT_1m_14sc_Sn_pop.gjf\\0,1\C,0,0.15
 2,0.706,-0.001\C,0,1.398,1.313,-0.001\C,0,1.356,2.736,-0.001\C,0,0.078
 ,3.212,-0.001\S,0,-1.096,1.945,-0.001\O,0,2.523,0.542,0.\H,0,2.229,3.3
 72,0.\C,0,-0.152,-0.706,-0.001\C,0,-1.398,-1.313,-0.001\C,0,-1.357,-2.
 736,-0.001\C,0,-0.078,-3.212,-0.001\S,0,1.096,-1.946,0.\O,0,-2.523,-0.
 542,-0.001\H,0,-2.229,-3.373,-0.001\C,0,3.80038736,1.1846524,0.0133948
 2\H,0,3.89907142,1.80026218,-0.85619477\H,0,3.88551218,1.79079618,0.89
 102998\C,0,4.91148739,0.11832757,0.01624038\H,0,4.816955,-0.49294643,0
 .88934273\H,0,4.82217287,-0.49217226,-0.85795231\C,0,6.28718911,0.8104
 441,0.02065523\H,0,7.0591825,0.06955587,0.02394857\H,0,6.38223611,1.42
 069993,-0.85310325\C,0,6.41500034,1.69057336,1.27788902\H,0,6.03933046
 ,2.67006837,1.06726692\H,0,5.85047762,1.25612114,2.0763033\C,0,7.89598
 587,1.78624809,1.68914102\H,0,8.47195731,2.15286436,0.86527853\H,0,7.9
 9338445,2.45552618,2.51828538\C,0,8.40782139,0.39100935,2.09279095\H,0
 ,7.6733172,-0.09672466,2.6990245\H,0,8.58793742,-0.19105481,1.21321177
 \C,0,9.71756122,0.53548074,2.88985406\H,0,10.11664869,-0.4350088,3.099
 08892\H,0,9.52102126,1.04614073,3.80936394\C,0,10.73578348,1.34176287,
 2.06236837\H,0,10.51192552,2.38521149,2.1398448\H,0,10.68075804,1.0403
 3632,1.03717852\C,0,12.15538888,1.08008764,2.59888173\H,0,12.18964915,
 1.3088577,3.6435781\H,0,12.40867959,0.05112974,2.45059334\C,0,13.16113
 524,1.97008469,1.84523758\H,0,12.91170148,2.99920196,1.99886188\H,0,13
 .12220776,1.74588747,0.79971366\C,0,14.58190575,1.70159826,2.37526228\
 H,0,14.83432057,0.67429019,2.21456103\H,0,14.61881328,1.91834759,3.422
 42872\C,0,15.58626778,2.59971051,1.62943972\H,0,15.33464377,3.62704093
 ,1.79123457\H,0,15.54840286,2.38389966,0.58211364\C,0,17.00727702,2.32
 984093,2.15812032\H,0,17.70469139,2.95628943,1.64229528\H,0,17.0442683
 ,2.54240983,3.20614041\C,0,17.37129058,0.85241373,1.92083779\H,0,16.98
 288146,0.25656059,2.72021091\H,0,16.94829673,0.52527156,0.99403997\H,0
 ,18.43561201,0.7488854,1.88339743\C,0,-3.05456713,-1.45173567,-0.96780
 784\H,0,-2.30648224,-1.67037412,-1.70092872\H,0,-3.35158703,-2.3567921
 8,-0.48041488\C,0,-4.27622018,-0.81416997,-1.6553206\H,0,-3.94739237,-
 0.19055749,-2.46023037\H,0,-4.91252536,-1.58459168,-2.0380295\C,0,-5.0
 5533521,0.03469094,-0.63355011\H,0,-4.69612486,1.04226843,-0.65915349\
 H,0,-4.91443403,-0.36938444,0.34714859\C,0,-6.55423661,0.01495964,-0.9
 8640319\H,0,-7.08226216,0.6818724,-0.3373143\H,0,-6.68581342,0.3265493
 3,-2.00153836\C,0,-7.10380311,-1.41308363,-0.81242315\H,0,-6.79027576,
 -2.01881155,-1.63685889\H,0,-6.73014782,-1.83044277,0.09921992\C,0,-8.
 64239866,-1.36864587,-0.76395651\H,0,-9.02704651,-2.36643575,-0.727059
 66\H,0,-8.95646965,-0.8328726,0.10736801\C,0,-9.17536085,-0.65924959,-
 2.02264957\H,0,-9.09027997,0.4000574,-1.89803034\H,0,-8.60352859,-0.96
 532962,-2.87366242\C,0,-10.65378656,-1.03393729,-2.23587843\H,0,-11.21
 219446,-0.79834818,-1.35407437\H,0,-10.73063871,-2.08198883,-2.4373274
 9\C,0,-11.21791214,-0.23928646,-3.42830972\H,0,-11.15295743,0.80850686
 ,-3.22140384\H,0,-10.65128974,-0.46503728,-4.30744316\C,0,-12.69103628
 ,-0.62776257,-3.65323545\H,0,-13.25558707,-0.41209939,-2.77024519\H,0,
 -13.08614779,-0.06765841,-4.47486202\C,0,-12.78296358,-2.13276353,-3.9
 6647893\H,0,-11.94753336,-2.42344634,-4.56852531\H,0,-12.7742815,-2.68
 855028,-3.0521892\C,0,-14.08978149,-2.41948056,-4.72911927\H,0,-14.067
 21309,-1.92074495,-5.67550896\H,0,-14.92154484,-2.063279,-4.15798866\C
 ,0,-14.23196316,-3.93666776,-4.95166671\H,0,-14.24063571,-4.43664247,-
 4.00570156\H,0,-13.407355,-4.29047662,-5.53453947\C,0,-15.54848198,-4.
 22504432,-5.69679568\H,0,-15.54092589,-3.72290612,-6.64162378\H,0,-15.
 64599009,-5.27896564,-5.85377348\H,0,-16.37325369,-3.87362663,-5.11270
 902\Sn,0,-0.218,5.331,0.\C,0,0.505,6.354,1.772\H,0,1.566,6.475,1.706\H
 ,0,0.041,7.316,1.843\H,0,0.265,5.777,2.64\C,0,-2.388,5.331,0.\H,0,-2.7
 45,4.829,-0.875\H,0,-2.745,4.825,0.873\H,0,-2.745,6.34,0.002\C,0,0.505
 ,6.354,-1.772\H,0,0.081,7.336,-1.815\H,0,1.572,6.428,-1.731\H,0,0.219,
 5.804,-2.643\Sn,0,0.346,-5.31,0.\C,0,1.735,-6.132,-1.451\H,0,2.738,-5.
 967,-1.118\H,0,1.562,-7.183,-1.554\H,0,1.589,-5.652,-2.396\C,0,1.409,-
 5.902,1.797\H,0,1.376,-6.967,1.896\H,0,2.427,-5.581,1.731\H,0,0.947,-5
 .45,2.65\C,0,-1.412,-6.582,0.001\H,0,-2.008,-6.366,0.862\H,0,-1.984,-6
 .4,-0.885\H,0,-1.109,-7.608,0.025\\Version=ES64L-G16RevA.03\State=1-A\
 HF=-1824.4079141\RMSD=6.160e-09\Dipole=0.7591101,0.5117618,-0.4845834\
 Quadrupole=1.8542471,5.5538195,-7.4080666,10.7102579,1.3613382,3.20823
 61\PG=C01 [X(C42H78O2S2Sn2)]\\@


 YOU WILL NEVER "FIND" TIME FOR ANYTHING.
 IF YOU WANT TIME, YOU MUST MAKE IT.

                        -- CHARLES BIXTON
 Job cpu time:       0 days  0 hours 27 minutes 43.9 seconds.
 Elapsed time:       0 days  0 hours  6 minutes 56.7 seconds.
 File lengths (MBytes):  RWF=    189 Int=      0 D2E=      0 Chk=     21 Scr=      1
 Normal termination of Gaussian 16 at Fri Jan 17 13:02:32 2020.
