 Entering Gaussian System, Link 0=g16
 Input=OBT_1m_14sc_Br_pop.gjf
 Output=OBT_1m_14sc_Br_pop.log
 Initial command:
 /apps/gaussian/g16-a03/l1.exe "/tmp/pbs.969801.pbs/Gau-11463.inp" -scrdir="/tmp/pbs.969801.pbs/"
 Entering Link 1 = /apps/gaussian/g16-a03/l1.exe PID=     11464.
  
 Copyright (c) 1988,1990,1992,1993,1995,1998,2003,2009,2016,
            Gaussian, Inc.  All Rights Reserved.
  
 This is part of the Gaussian(R) 16 program.  It is based on
 the Gaussian(R) 09 system (copyright 2009, Gaussian, Inc.),
 the Gaussian(R) 03 system (copyright 2003, Gaussian, Inc.),
 the Gaussian(R) 98 system (copyright 1998, Gaussian, Inc.),
 the Gaussian(R) 94 system (copyright 1995, Gaussian, Inc.),
 the Gaussian 92(TM) system (copyright 1992, Gaussian, Inc.),
 the Gaussian 90(TM) system (copyright 1990, Gaussian, Inc.),
 the Gaussian 88(TM) system (copyright 1988, Gaussian, Inc.),
 the Gaussian 86(TM) system (copyright 1986, Carnegie Mellon
 University), and the Gaussian 82(TM) system (copyright 1983,
 Carnegie Mellon University). Gaussian is a federally registered
 trademark of Gaussian, Inc.
  
 This software contains proprietary and confidential information,
 including trade secrets, belonging to Gaussian, Inc.
  
 This software is provided under written license and may be
 used, copied, transmitted, or stored only in accord with that
 written license.
  
 The following legend is applicable only to US Government
 contracts under FAR:
  
                    RESTRICTED RIGHTS LEGEND
  
 Use, reproduction and disclosure by the US Government is
 subject to restrictions as set forth in subparagraphs (a)
 and (c) of the Commercial Computer Software - Restricted
 Rights clause in FAR 52.227-19.
  
 Gaussian, Inc.
 340 Quinnipiac St., Bldg. 40, Wallingford CT 06492
  
  
 ---------------------------------------------------------------
 Warning -- This program may not be used in any manner that
 competes with the business of Gaussian, Inc. or will provide
 assistance to any competitor of Gaussian, Inc.  The licensee
 of this program is prohibited from giving any competitor of
 Gaussian, Inc. access to this program.  By using this program,
 the user acknowledges that Gaussian, Inc. is engaged in the
 business of creating and licensing software in the field of
 computational chemistry and represents and warrants to the
 licensee that it is not a competitor of Gaussian, Inc. and that
 it will not use this program in any manner prohibited above.
 ---------------------------------------------------------------
  

 Cite this work as:
 Gaussian 16, Revision A.03,
 M. J. Frisch, G. W. Trucks, H. B. Schlegel, G. E. Scuseria, 
 M. A. Robb, J. R. Cheeseman, G. Scalmani, V. Barone, 
 G. A. Petersson, H. Nakatsuji, X. Li, M. Caricato, A. V. Marenich, 
 J. Bloino, B. G. Janesko, R. Gomperts, B. Mennucci, H. P. Hratchian, 
 J. V. Ortiz, A. F. Izmaylov, J. L. Sonnenberg, D. Williams-Young, 
 F. Ding, F. Lipparini, F. Egidi, J. Goings, B. Peng, A. Petrone, 
 T. Henderson, D. Ranasinghe, V. G. Zakrzewski, J. Gao, N. Rega, 
 G. Zheng, W. Liang, M. Hada, M. Ehara, K. Toyota, R. Fukuda, 
 J. Hasegawa, M. Ishida, T. Nakajima, Y. Honda, O. Kitao, H. Nakai, 
 T. Vreven, K. Throssell, J. A. Montgomery, Jr., J. E. Peralta, 
 F. Ogliaro, M. J. Bearpark, J. J. Heyd, E. N. Brothers, K. N. Kudin, 
 V. N. Staroverov, T. A. Keith, R. Kobayashi, J. Normand, 
 K. Raghavachari, A. P. Rendell, J. C. Burant, S. S. Iyengar, 
 J. Tomasi, M. Cossi, J. M. Millam, M. Klene, C. Adamo, R. Cammi, 
 J. W. Ochterski, R. L. Martin, K. Morokuma, O. Farkas, 
 J. B. Foresman, and D. J. Fox, Gaussian, Inc., Wallingford CT, 2016.
 
 ******************************************
 Gaussian 16:  ES64L-G16RevA.03 25-Dec-2016
                17-Jan-2020 
 ******************************************
 %mem=50GB
 %nprocshared=4
 Will use up to    4 processors via shared memory.
 ------------------------------
 #p pop=MKUFF b3lyp/6-311g(d,p)
 ------------------------------
 1/38=1,172=1/1;
 2/12=2,17=6,18=5,40=1/2;
 3/5=4,6=6,7=101,11=2,25=1,30=1,74=-5/1,2,3;
 4//1;
 5/5=2,38=5/2;
 6/7=2,8=2,9=2,10=2,15=8,20=4,28=1/1,2;
 99/5=1,9=1/99;
 Leave Link    1 at Fri Jan 17 12:54:22 2020, MaxMem=  6710886400 cpu:               0.1 elap:               0.0
 (Enter /apps/gaussian/g16-a03/l101.exe)
 ----------------------
 OBT_1m_14sc_Br_pop.gjf
 ----------------------
 Symbolic Z-matrix:
 Charge =  0 Multiplicity = 1
 C                    -0.06094   1.27102   0.17553 
 C                     1.18506   1.87802   0.17553 
 C                     1.14306   3.30102   0.17553 
 C                    -0.13494   3.77702   0.17553 
 S                    -1.30894   2.51002   0.17553 
 O                     2.31006   1.10702   0.17653 
 H                     2.01606   3.93702   0.17653 
 C                    -0.36494  -0.14098   0.17553 
 C                    -1.61094  -0.74798   0.17553 
 C                    -1.56994  -2.17098   0.17553 
 C                    -0.29094  -2.64698   0.17553 
 S                     0.88306  -1.38098   0.17653 
 O                    -2.73594   0.02302   0.17553 
 H                    -2.44194  -2.80798   0.17553 
 C                     3.58744   1.74967   0.18992 
 H                     3.68613   2.36528  -0.67967 
 H                     3.67257   2.35582   1.06756 
 C                     4.69854   0.68335   0.19277 
 H                     4.60401   0.07207   1.06587 
 H                     4.60923   0.07285  -0.68143 
 C                     6.07425   1.37546   0.19718 
 H                     6.84624   0.63458   0.20047 
 H                     6.16929   1.98572  -0.67658 
 C                     6.20206   2.25559   1.45441 
 H                     5.82639   3.23509   1.24379 
 H                     5.63753   1.82114   2.25283 
 C                     7.68304   2.35127   1.86567 
 H                     8.25901   2.71788   1.0418 
 H                     7.78044   3.02055   2.69481 
 C                     8.19488   0.95603   2.26932 
 H                     7.46037   0.4683    2.87555 
 H                     8.37499   0.37396   1.38974 
 C                     9.50462   1.1005    3.06638 
 H                     9.9037    0.13001   3.27561 
 H                     9.30808   1.61116   3.98589 
 C                     10.52284   1.90678   2.23889 
 H                     10.29898   2.95023   2.31637 
 H                     10.46781   1.60536   1.2137 
 C                     11.94245   1.64511   2.77541 
 H                     11.97671   1.87388   3.8201 
 H                     12.19574   0.61615   2.62712 
 C                     12.94819   2.5351    2.02176 
 H                     12.69876   3.56422   2.17539 
 H                     12.90926   2.31091   0.97624 
 C                     14.36896   2.26662   2.55179 
 H                     14.62138   1.23931   2.39109 
 H                     14.40587   2.48337   3.59895 
 C                     15.37332   3.16473   1.80597 
 H                     15.1217   4.19206   1.96776 
 H                     15.33546   2.94892   0.75864 
 C                     16.79433   2.89486   2.33465 
 H                     17.49175   3.52131   1.81882 
 H                     16.83132   3.10743   3.38267 
 C                     17.15835   1.41743   2.09736 
 H                     16.76994   0.82158   2.89674 
 H                     16.73535   1.09029   1.17057 
 H                     18.22267   1.31391   2.05992 
 C                    -3.26751  -0.88672  -0.79128 
 H                    -2.51943  -1.10535  -1.5244 
 H                    -3.56453  -1.79177  -0.30389 
 C                    -4.48916  -0.24915  -1.47879 
 H                    -4.16034   0.37446  -2.2837 
 H                    -5.12547  -1.01957  -1.8615 
 C                    -5.26828   0.59971  -0.45702 
 H                    -4.90907   1.60729  -0.48263 
 H                    -5.12738   0.19564   0.52367 
 C                    -6.76718   0.57998  -0.80988 
 H                    -7.29521   1.24689  -0.16079 
 H                    -6.89876   0.89157  -1.82501 
 C                    -7.31675  -0.84806  -0.6359 
 H                    -7.00322  -1.45379  -1.46033 
 H                    -6.94309  -1.26542   0.27575 
 C                    -8.85534  -0.80363  -0.58743 
 H                    -9.23999  -1.80142  -0.55053 
 H                    -9.16941  -0.26785   0.28389 
 C                    -9.3883   -0.09423  -1.84612 
 H                    -9.30322   0.96508  -1.7215 
 H                    -8.81647  -0.40031  -2.69714 
 C                    -10.86673  -0.46892  -2.05935 
 H                    -11.42514  -0.23333  -1.17755 
 H                    -10.94358  -1.51697  -2.2608 
 C                    -11.43086   0.32573  -3.25178 
 H                    -11.3659   1.37353  -3.04488 
 H                    -10.86423   0.09998  -4.13092 
 C                    -12.90398  -0.06274  -3.47671 
 H                    -13.46853   0.15292  -2.59372 
 H                    -13.29909   0.49736  -4.29834 
 C                    -12.99591  -1.56774  -3.78995 
 H                    -12.16048  -1.85843  -4.392 
 H                    -12.98723  -2.12353  -2.87566 
 C                    -14.30273  -1.85446  -4.55259 
 H                    -14.28016  -1.35573  -5.49898 
 H                    -15.13449  -1.49826  -3.98146 
 C                    -14.44491  -3.37165  -4.77514 
 H                    -14.45358  -3.87162  -3.82918 
 H                    -13.6203  -3.72546  -5.35801 
 C                    -15.76143  -3.66002  -5.52027 
 H                    -15.75387  -3.15789  -6.4651 
 H                    -15.85893  -4.71395  -5.67725 
 H                    -16.5862  -3.30861  -4.93618 
 Br                    0.3522   -4.35347  -0.35762 
 Br                   -0.64658   5.40032  -0.66895 
 
 ITRead=  0  0  0  0  0  0  0  0  0  0  0  0  0  0  0  0  0  0  0  0
 ITRead=  0  0  0  0  0  0  0  0  0  0  0  0  0  0  0  0  0  0  0  0
 ITRead=  0  0  0  0  0  0  0  0  0  0  0  0  0  0  0  0  0  0  0  0
 ITRead=  0  0  0  0  0  0  0  0  0  0  0  0  0  0  0  0  0  0  0  0
 ITRead=  0  0  0  0  0  0  0  0  0  0  0  0  0  0  0  0  0  0  0  0
 ITRead=  0  0
 MicOpt= -1 -1 -1 -1 -1 -1 -1 -1 -1 -1 -1 -1 -1 -1 -1 -1 -1 -1 -1 -1
 MicOpt= -1 -1 -1 -1 -1 -1 -1 -1 -1 -1 -1 -1 -1 -1 -1 -1 -1 -1 -1 -1
 MicOpt= -1 -1 -1 -1 -1 -1 -1 -1 -1 -1 -1 -1 -1 -1 -1 -1 -1 -1 -1 -1
 MicOpt= -1 -1 -1 -1 -1 -1 -1 -1 -1 -1 -1 -1 -1 -1 -1 -1 -1 -1 -1 -1
 MicOpt= -1 -1 -1 -1 -1 -1 -1 -1 -1 -1 -1 -1 -1 -1 -1 -1 -1 -1 -1 -1
 MicOpt= -1 -1
 NAtoms=    102 NQM=      102 NQMF=       0 NMMI=      0 NMMIF=      0
                NMic=       0 NMicF=      0.
                    Isotopes and Nuclear Properties:
 (Nuclear quadrupole moments (NQMom) in fm**2, nuclear magnetic moments (NMagM)
  in nuclear magnetons)

  Atom         1           2           3           4           5           6           7           8           9          10
 IAtWgt=          12          12          12          12          32          16           1          12          12          12
 AtmWgt=  12.0000000  12.0000000  12.0000000  12.0000000  31.9720718  15.9949146   1.0078250  12.0000000  12.0000000  12.0000000
 NucSpn=           0           0           0           0           0           0           1           0           0           0
 AtZEff=  -0.0000000  -0.0000000  -0.0000000  -0.0000000  -0.0000000  -0.0000000  -0.0000000  -0.0000000  -0.0000000  -0.0000000
 NQMom=    0.0000000   0.0000000   0.0000000   0.0000000   0.0000000   0.0000000   0.0000000   0.0000000   0.0000000   0.0000000
 NMagM=    0.0000000   0.0000000   0.0000000   0.0000000   0.0000000   0.0000000   2.7928460   0.0000000   0.0000000   0.0000000
 AtZNuc=   6.0000000   6.0000000   6.0000000   6.0000000  16.0000000   8.0000000   1.0000000   6.0000000   6.0000000   6.0000000

  Atom        11          12          13          14          15          16          17          18          19          20
 IAtWgt=          12          32          16           1          12           1           1          12           1           1
 AtmWgt=  12.0000000  31.9720718  15.9949146   1.0078250  12.0000000   1.0078250   1.0078250  12.0000000   1.0078250   1.0078250
 NucSpn=           0           0           0           1           0           1           1           0           1           1
 AtZEff=  -0.0000000  -0.0000000  -0.0000000  -0.0000000  -0.0000000  -0.0000000  -0.0000000  -0.0000000  -0.0000000  -0.0000000
 NQMom=    0.0000000   0.0000000   0.0000000   0.0000000   0.0000000   0.0000000   0.0000000   0.0000000   0.0000000   0.0000000
 NMagM=    0.0000000   0.0000000   0.0000000   2.7928460   0.0000000   2.7928460   2.7928460   0.0000000   2.7928460   2.7928460
 AtZNuc=   6.0000000  16.0000000   8.0000000   1.0000000   6.0000000   1.0000000   1.0000000   6.0000000   1.0000000   1.0000000

  Atom        21          22          23          24          25          26          27          28          29          30
 IAtWgt=          12           1           1          12           1           1          12           1           1          12
 AtmWgt=  12.0000000   1.0078250   1.0078250  12.0000000   1.0078250   1.0078250  12.0000000   1.0078250   1.0078250  12.0000000
 NucSpn=           0           1           1           0           1           1           0           1           1           0
 AtZEff=  -0.0000000  -0.0000000  -0.0000000  -0.0000000  -0.0000000  -0.0000000  -0.0000000  -0.0000000  -0.0000000  -0.0000000
 NQMom=    0.0000000   0.0000000   0.0000000   0.0000000   0.0000000   0.0000000   0.0000000   0.0000000   0.0000000   0.0000000
 NMagM=    0.0000000   2.7928460   2.7928460   0.0000000   2.7928460   2.7928460   0.0000000   2.7928460   2.7928460   0.0000000
 AtZNuc=   6.0000000   1.0000000   1.0000000   6.0000000   1.0000000   1.0000000   6.0000000   1.0000000   1.0000000   6.0000000

  Atom        31          32          33          34          35          36          37          38          39          40
 IAtWgt=           1           1          12           1           1          12           1           1          12           1
 AtmWgt=   1.0078250   1.0078250  12.0000000   1.0078250   1.0078250  12.0000000   1.0078250   1.0078250  12.0000000   1.0078250
 NucSpn=           1           1           0           1           1           0           1           1           0           1
 AtZEff=  -0.0000000  -0.0000000  -0.0000000  -0.0000000  -0.0000000  -0.0000000  -0.0000000  -0.0000000  -0.0000000  -0.0000000
 NQMom=    0.0000000   0.0000000   0.0000000   0.0000000   0.0000000   0.0000000   0.0000000   0.0000000   0.0000000   0.0000000
 NMagM=    2.7928460   2.7928460   0.0000000   2.7928460   2.7928460   0.0000000   2.7928460   2.7928460   0.0000000   2.7928460
 AtZNuc=   1.0000000   1.0000000   6.0000000   1.0000000   1.0000000   6.0000000   1.0000000   1.0000000   6.0000000   1.0000000

  Atom        41          42          43          44          45          46          47          48          49          50
 IAtWgt=           1          12           1           1          12           1           1          12           1           1
 AtmWgt=   1.0078250  12.0000000   1.0078250   1.0078250  12.0000000   1.0078250   1.0078250  12.0000000   1.0078250   1.0078250
 NucSpn=           1           0           1           1           0           1           1           0           1           1
 AtZEff=  -0.0000000  -0.0000000  -0.0000000  -0.0000000  -0.0000000  -0.0000000  -0.0000000  -0.0000000  -0.0000000  -0.0000000
 NQMom=    0.0000000   0.0000000   0.0000000   0.0000000   0.0000000   0.0000000   0.0000000   0.0000000   0.0000000   0.0000000
 NMagM=    2.7928460   0.0000000   2.7928460   2.7928460   0.0000000   2.7928460   2.7928460   0.0000000   2.7928460   2.7928460
 AtZNuc=   1.0000000   6.0000000   1.0000000   1.0000000   6.0000000   1.0000000   1.0000000   6.0000000   1.0000000   1.0000000

  Atom        51          52          53          54          55          56          57          58          59          60
 IAtWgt=          12           1           1          12           1           1           1          12           1           1
 AtmWgt=  12.0000000   1.0078250   1.0078250  12.0000000   1.0078250   1.0078250   1.0078250  12.0000000   1.0078250   1.0078250
 NucSpn=           0           1           1           0           1           1           1           0           1           1
 AtZEff=  -0.0000000  -0.0000000  -0.0000000  -0.0000000  -0.0000000  -0.0000000  -0.0000000  -0.0000000  -0.0000000  -0.0000000
 NQMom=    0.0000000   0.0000000   0.0000000   0.0000000   0.0000000   0.0000000   0.0000000   0.0000000   0.0000000   0.0000000
 NMagM=    0.0000000   2.7928460   2.7928460   0.0000000   2.7928460   2.7928460   2.7928460   0.0000000   2.7928460   2.7928460
 AtZNuc=   6.0000000   1.0000000   1.0000000   6.0000000   1.0000000   1.0000000   1.0000000   6.0000000   1.0000000   1.0000000

  Atom        61          62          63          64          65          66          67          68          69          70
 IAtWgt=          12           1           1          12           1           1          12           1           1          12
 AtmWgt=  12.0000000   1.0078250   1.0078250  12.0000000   1.0078250   1.0078250  12.0000000   1.0078250   1.0078250  12.0000000
 NucSpn=           0           1           1           0           1           1           0           1           1           0
 AtZEff=  -0.0000000  -0.0000000  -0.0000000  -0.0000000  -0.0000000  -0.0000000  -0.0000000  -0.0000000  -0.0000000  -0.0000000
 NQMom=    0.0000000   0.0000000   0.0000000   0.0000000   0.0000000   0.0000000   0.0000000   0.0000000   0.0000000   0.0000000
 NMagM=    0.0000000   2.7928460   2.7928460   0.0000000   2.7928460   2.7928460   0.0000000   2.7928460   2.7928460   0.0000000
 AtZNuc=   6.0000000   1.0000000   1.0000000   6.0000000   1.0000000   1.0000000   6.0000000   1.0000000   1.0000000   6.0000000

  Atom        71          72          73          74          75          76          77          78          79          80
 IAtWgt=           1           1          12           1           1          12           1           1          12           1
 AtmWgt=   1.0078250   1.0078250  12.0000000   1.0078250   1.0078250  12.0000000   1.0078250   1.0078250  12.0000000   1.0078250
 NucSpn=           1           1           0           1           1           0           1           1           0           1
 AtZEff=  -0.0000000  -0.0000000  -0.0000000  -0.0000000  -0.0000000  -0.0000000  -0.0000000  -0.0000000  -0.0000000  -0.0000000
 NQMom=    0.0000000   0.0000000   0.0000000   0.0000000   0.0000000   0.0000000   0.0000000   0.0000000   0.0000000   0.0000000
 NMagM=    2.7928460   2.7928460   0.0000000   2.7928460   2.7928460   0.0000000   2.7928460   2.7928460   0.0000000   2.7928460
 AtZNuc=   1.0000000   1.0000000   6.0000000   1.0000000   1.0000000   6.0000000   1.0000000   1.0000000   6.0000000   1.0000000

  Atom        81          82          83          84          85          86          87          88          89          90
 IAtWgt=           1          12           1           1          12           1           1          12           1           1
 AtmWgt=   1.0078250  12.0000000   1.0078250   1.0078250  12.0000000   1.0078250   1.0078250  12.0000000   1.0078250   1.0078250
 NucSpn=           1           0           1           1           0           1           1           0           1           1
 AtZEff=  -0.0000000  -0.0000000  -0.0000000  -0.0000000  -0.0000000  -0.0000000  -0.0000000  -0.0000000  -0.0000000  -0.0000000
 NQMom=    0.0000000   0.0000000   0.0000000   0.0000000   0.0000000   0.0000000   0.0000000   0.0000000   0.0000000   0.0000000
 NMagM=    2.7928460   0.0000000   2.7928460   2.7928460   0.0000000   2.7928460   2.7928460   0.0000000   2.7928460   2.7928460
 AtZNuc=   1.0000000   6.0000000   1.0000000   1.0000000   6.0000000   1.0000000   1.0000000   6.0000000   1.0000000   1.0000000

  Atom        91          92          93          94          95          96          97          98          99         100
 IAtWgt=          12           1           1          12           1           1          12           1           1           1
 AtmWgt=  12.0000000   1.0078250   1.0078250  12.0000000   1.0078250   1.0078250  12.0000000   1.0078250   1.0078250   1.0078250
 NucSpn=           0           1           1           0           1           1           0           1           1           1
 AtZEff=  -0.0000000  -0.0000000  -0.0000000  -0.0000000  -0.0000000  -0.0000000  -0.0000000  -0.0000000  -0.0000000  -0.0000000
 NQMom=    0.0000000   0.0000000   0.0000000   0.0000000   0.0000000   0.0000000   0.0000000   0.0000000   0.0000000   0.0000000
 NMagM=    0.0000000   2.7928460   2.7928460   0.0000000   2.7928460   2.7928460   0.0000000   2.7928460   2.7928460   2.7928460
 AtZNuc=   6.0000000   1.0000000   1.0000000   6.0000000   1.0000000   1.0000000   6.0000000   1.0000000   1.0000000   1.0000000

  Atom       101         102
 IAtWgt=          79          79
 AtmWgt=  78.9183361  78.9183361
 NucSpn=           3           3
 AtZEff=  -0.0000000  -0.0000000
 NQMom=   31.3000000  31.3000000
 NMagM=    2.1063990   2.1063990
 AtZNuc=  35.0000000  35.0000000
 Leave Link  101 at Fri Jan 17 12:54:22 2020, MaxMem=  6710886400 cpu:               0.6 elap:               0.2
 (Enter /apps/gaussian/g16-a03/l202.exe)
 Stoichiometry    C36H60Br2O2S2
 Framework group  C1[X(C36H60Br2O2S2)]
 Deg. of freedom   300
 Full point group                 C1      NOp   1
 Largest Abelian subgroup         C1      NOp   1
 Largest concise Abelian subgroup C1      NOp   1
                         Standard orientation:                         
 ---------------------------------------------------------------------
 Center     Atomic      Atomic             Coordinates (Angstroms)
 Number     Number       Type             X           Y           Z
 ---------------------------------------------------------------------
      1          6           0       -0.067376    0.767398   -0.417765
      2          6           0       -1.357816    1.194270   -0.146637
      3          6           0       -1.514343    2.609114   -0.126412
      4          6           0       -0.342996    3.259040   -0.382156
      5         16           0        0.969194    2.168610   -0.651757
      6          8           0       -2.340363    0.273627    0.070352
      7          1           0       -2.447886    3.116823    0.066860
      8          6           0        0.422609   -0.588196   -0.509626
      9          6           0        1.713048   -1.015068   -0.780755
     10          6           0        1.870543   -2.429773   -0.801186
     11          6           0        0.698229   -3.079838   -0.545235
     12         16           0       -0.614031   -1.990407   -0.276632
     13          8           0        2.695387   -0.094434   -0.998721
     14          1           0        2.803049   -2.938620   -0.995249
     15          6           0       -3.668924    0.731292    0.335625
     16          1           0       -3.668476    1.334942    1.219087
     17          1           0       -4.018308    1.311590   -0.492678
     18          6           0       -4.597475   -0.479839    0.541914
     19          1           0       -4.603275   -1.079808   -0.344034
     20          1           0       -4.244149   -1.063896    1.365891
     21          6           0       -6.026202    0.013143    0.837394
     22          1           0       -6.671633   -0.828369    0.979436
     23          1           0       -6.020622    0.612038    1.724069
     24          6           0       -6.534020    0.855311   -0.347711
     25          1           0       -6.262132    1.879570   -0.199824
     26          1           0       -6.093727    0.496787   -1.254630
     27          6           0       -8.066847    0.739319   -0.440378
     28          1           0       -8.503519    1.029308    0.492427
     29          1           0       -8.426752    1.380855   -1.217424
     30          6           0       -8.453198   -0.717370   -0.757220
     31          1           0       -7.800885   -1.103148   -1.512577
     32          1           0       -8.363541   -1.310879    0.128561
     33          6           0       -9.907430   -0.764618   -1.261777
     34          1           0      -10.202948   -1.783220   -1.403261
     35          1           0       -9.979616   -0.239876   -2.191474
     36          6           0      -10.832441   -0.101075   -0.224634
     37          1           0      -10.776457    0.962672   -0.325672
     38          1           0      -10.523661   -0.382525    0.760424
     39          6           0      -12.282438   -0.563454   -0.459822
     40          1           0      -12.565113   -0.351218   -1.469748
     41          1           0      -12.354162   -1.616323   -0.283124
     42          6           0      -13.222366    0.184052    0.504217
     43          1           0      -13.155511    1.236492    0.323105
     44          1           0      -12.935634   -0.022996    1.514076
     45          6           0      -14.671195   -0.285175    0.275478
     46          1           0      -14.739712   -1.336175    0.464168
     47          1           0      -14.955282   -0.085234   -0.736558
     48          6           0      -15.612538    0.470488    1.231745
     49          1           0      -15.545018    1.521391    1.042151
     50          1           0      -15.327621    0.271612    2.243759
     51          6           0      -17.061126   -0.000129    1.004343
     52          1           0      -17.715601    0.527358    1.666400
     53          1           0      -17.344893    0.195653   -0.008596
     54          6           0      -17.159348   -1.511714    1.281949
     55          1           0      -16.867395   -2.054671    0.407386
     56          1           0      -16.511266   -1.768092    2.093835
     57          1           0      -18.167628   -1.762634    1.537507
     58          6           0        3.537659   -0.912126   -0.182106
     59          1           0        2.996536   -1.226503    0.685796
     60          1           0        3.849023   -1.771177   -0.738867
     61          6           0        4.775400   -0.103856    0.249516
     62          1           0        4.538438    0.474965    1.117684
     63          1           0        5.577993   -0.774275    0.475973
     64          6           0        5.199054    0.836246   -0.894305
     65          1           0        4.716996    1.783921   -0.774165
     66          1           0        4.914172    0.407551   -1.832368
     67          6           0        6.726527    1.029406   -0.860927
     68          1           0        7.009998    1.757647   -1.591824
     69          1           0        7.022377    1.365537    0.110869
     70          6           0        7.420211   -0.309333   -1.174266
     71          1           0        7.372486   -0.945419   -0.315187
     72          1           0        6.926224   -0.783084   -1.996723
     73          6           0        8.893553   -0.050734   -1.540311
     74          1           0        9.396527   -0.985265   -1.676580
     75          1           0        8.941722    0.515737   -2.446782
     76          6           0        9.573661    0.737594   -0.405590
     77          1           0        9.318516    1.773436   -0.488246
     78          1           0        9.239874    0.362342    0.539223
     79          6           0       11.101388    0.575166   -0.511731
     80          1           0       11.425526    0.878466   -1.485303
     81          1           0       11.363024   -0.449984   -0.351998
     82          6           0       11.786039    1.451662    0.553449
     83          1           0       11.534819    2.478169    0.385904
     84          1           0       11.452027    1.156931    1.526316
     85          6           0       13.312983    1.274947    0.459568
     86          1           0       13.645582    1.559365   -0.516845
     87          1           0       13.789195    1.892217    1.192439
     88          6           0       13.675842   -0.199526    0.716208
     89          1           0       13.032811   -0.598636    1.472596
     90          1           0       13.553837   -0.759354   -0.187455
     91          6           0       15.139780   -0.293843    1.184813
     92          1           0       15.246127    0.205421    2.125199
     93          1           0       15.776626    0.169909    0.460754
     94          6           0       15.534073   -1.774182    1.342068
     95          1           0       15.414533   -2.276611    0.404958
     96          1           0       14.906270   -2.234457    2.076173
     97          6           0       17.003982   -1.868945    1.791499
     98          1           0       17.124066   -1.364228    2.727309
     99          1           0       17.277158   -2.897424    1.903330
    100          1           0       17.632021   -1.411025    1.056124
    101         35           0        0.423194   -4.854555    0.075036
    102         35           0        0.103465    4.945517    0.370483
 ---------------------------------------------------------------------
 Rotational constants (GHZ):           0.0955955           0.0098473           0.0090636
 Leave Link  202 at Fri Jan 17 12:54:23 2020, MaxMem=  6710886400 cpu:               0.1 elap:               0.0
 (Enter /apps/gaussian/g16-a03/l301.exe)
 Standard basis: 6-311G(d,p) (5D, 7F)
 Ernie: Thresh=  0.10000D-02 Tol=  0.10000D-05 Strict=F.
 There are  1230 symmetry adapted cartesian basis functions of A   symmetry.
 There are  1184 symmetry adapted basis functions of A   symmetry.
  1184 basis functions,  1968 primitive gaussians,  1230 cartesian basis functions
   197 alpha electrons      197 beta electrons
       nuclear repulsion energy      5980.2247361613 Hartrees.
 IExCor=  402 DFT=T Ex+Corr=B3LYP ExCW=0 ScaHFX=  0.200000
 ScaDFX=  0.800000  0.720000  1.000000  0.810000 ScalE2=  1.000000  1.000000
 IRadAn=      5 IRanWt=     -1 IRanGd=            0 ICorTp=0 IEmpDi=  4
 NAtoms=  102 NActive=  102 NUniq=  102 SFac= 1.00D+00 NAtFMM=   60 NAOKFM=T Big=T
 Integral buffers will be    131072 words long.
 Raffenetti 2 integral format.
 Two-electron integral symmetry is turned on.
 Leave Link  301 at Fri Jan 17 12:54:23 2020, MaxMem=  6710886400 cpu:               0.3 elap:               0.1
 (Enter /apps/gaussian/g16-a03/l302.exe)
 NPDir=0 NMtPBC=     1 NCelOv=     1 NCel=       1 NClECP=     1 NCelD=      1
         NCelK=      1 NCelE2=     1 NClLst=     1 CellRange=     0.0.
 One-electron integrals computed using PRISM.
 One-electron integral symmetry used in STVInt
 NBasis=  1184 RedAO= T EigKep=  2.89D-04  NBF=  1184
 NBsUse=  1184 1.00D-06 EigRej= -1.00D+00 NBFU=  1184
 Precomputing XC quadrature grid using
 IXCGrd= 4 IRadAn=           5 IRanWt=          -1 IRanGd=           0 AccXCQ= 0.00D+00.
 Generated NRdTot=       0 NPtTot=           0 NUsed=           0 NTot=          32
 NSgBfM=   753   741   752   752   753 MxSgAt=   102 MxSgA2=   101.
 Leave Link  302 at Fri Jan 17 12:54:28 2020, MaxMem=  6710886400 cpu:              21.9 elap:               5.5
 (Enter /apps/gaussian/g16-a03/l303.exe)
 DipDrv:  MaxL=1.
 Leave Link  303 at Fri Jan 17 12:54:29 2020, MaxMem=  6710886400 cpu:               1.0 elap:               0.3
 (Enter /apps/gaussian/g16-a03/l401.exe)
 ExpMin= 7.71D-02 ExpMax= 4.40D+05 ExpMxC= 1.51D+04 IAcc=3 IRadAn=         5 AccDes= 0.00D+00
 Harris functional with IExCor=  402 and IRadAn=       5 diagonalized for initial guess.
 HarFok:  IExCor=  402 AccDes= 0.00D+00 IRadAn=         5 IDoV= 1 UseB2=F ITyADJ=14
 ICtDFT=  3500011 ScaDFX=  1.000000  1.000000  1.000000  1.000000
 FoFCou: FMM=F IPFlag=           0 FMFlag=      100000 FMFlg1=        2001
         NFxFlg=           0 DoJE=T BraDBF=F KetDBF=T FulRan=T
         wScrn=  0.000000 ICntrl=       500 IOpCl=  0 I1Cent=   200000004 NGrid=           0
         NMat0=    1 NMatS0=      1 NMatT0=    0 NMatD0=    1 NMtDS0=    0 NMtDT0=    0
 Petite list used in FoFCou.
 Harris En= -7503.85498070077    
 JPrj=0 DoOrth=F DoCkMO=F.
 Leave Link  401 at Fri Jan 17 12:54:58 2020, MaxMem=  6710886400 cpu:             116.3 elap:              29.1
 (Enter /apps/gaussian/g16-a03/l502.exe)
 Integral symmetry usage will be decided dynamically.
 Closed shell SCF:
 Using DIIS extrapolation, IDIIS=  1040.
 NGot=  6710886400 LenX=  6707840832 LenY=  6706326702
 Requested convergence on RMS density matrix=1.00D-08 within 128 cycles.
 Requested convergence on MAX density matrix=1.00D-06.
 Requested convergence on             energy=1.00D-06.
 No special actions if energy rises.
 Fock matrices will be formed incrementally for  20 cycles.
 Integral accuracy reduced to 1.0D-05 until final iterations.

 Cycle   1  Pass 0  IDiag  1:
 FoFJK:  IHMeth= 1 ICntrl=       0 DoSepK=F KAlg= 0 I1Cent=           0 FoldK=F
 IRaf= 440000000 NMat=       1 IRICut=       1 DoRegI=T DoRafI=F ISym2E= 0 IDoP0=0 IntGTp=1.
 FoFCou: FMM=T IPFlag=           0 FMFlag=      100000 FMFlg1=        2001
         NFxFlg=           0 DoJE=F BraDBF=F KetDBF=F FulRan=T
         wScrn=  0.000000 ICntrl=         0 IOpCl=  0 I1Cent=           0 NGrid=           0
         NMat0=    1 NMatS0=      1 NMatT0=    0 NMatD0=    1 NMtDS0=    0 NMtDT0=    0
 Symmetry not used in FoFCou.
 FMM levels:  10  Number of levels for PrismC:   9
 E= -7501.78323013440    
 DIIS: error= 6.17D-02 at cycle   1 NSaved=   1.
 NSaved= 1 IEnMin= 1 EnMin= -7501.78323013440     IErMin= 1 ErrMin= 6.17D-02
 ErrMax= 6.17D-02  0.00D+00 EMaxC= 1.00D-01 BMatC= 3.95D+00 BMatP= 3.95D+00
 IDIUse=3 WtCom= 3.83D-01 WtEn= 6.17D-01
 Coeff-Com:  0.100D+01
 Coeff-En:   0.100D+01
 Coeff:      0.100D+01
 Gap=     0.087 Goal=   None    Shift=    0.000
 GapD=    0.087 DampG=0.500 DampE=0.500 DampFc=0.2500 IDamp=-1.
 Damping current iteration by 2.50D-01
 RMSDP=2.02D-03 MaxDP=1.40D-01              OVMax= 2.70D-01

 Cycle   2  Pass 0  IDiag  1:
 RMSU=  5.05D-04    CP:  9.95D-01
 E= -7502.37605464317     Delta-E=       -0.592824508769 Rises=F Damp=T
 DIIS: error= 4.19D-02 at cycle   2 NSaved=   2.
 NSaved= 2 IEnMin= 2 EnMin= -7502.37605464317     IErMin= 2 ErrMin= 4.19D-02
 ErrMax= 4.19D-02  0.00D+00 EMaxC= 1.00D-01 BMatC= 1.51D+00 BMatP= 3.95D+00
 IDIUse=3 WtCom= 5.81D-01 WtEn= 4.19D-01
 Coeff-Com: -0.125D+01 0.225D+01
 Coeff-En:   0.000D+00 0.100D+01
 Coeff:     -0.724D+00 0.172D+01
 Gap=     0.234 Goal=   None    Shift=    0.000
 RMSDP=5.66D-04 MaxDP=4.58D-02 DE=-5.93D-01 OVMax= 2.46D-01

 Cycle   3  Pass 0  IDiag  1:
 RMSU=  5.17D-04    CP:  9.93D-01  1.46D+00
 E= -7503.37058821104     Delta-E=       -0.994533567862 Rises=F Damp=F
 DIIS: error= 4.12D-03 at cycle   3 NSaved=   3.
 NSaved= 3 IEnMin= 3 EnMin= -7503.37058821104     IErMin= 3 ErrMin= 4.12D-03
 ErrMax= 4.12D-03  0.00D+00 EMaxC= 1.00D-01 BMatC= 3.34D-02 BMatP= 1.51D+00
 IDIUse=3 WtCom= 9.59D-01 WtEn= 4.12D-02
 Coeff-Com: -0.145D+00 0.291D+00 0.854D+00
 Coeff-En:   0.000D+00 0.000D+00 0.100D+01
 Coeff:     -0.139D+00 0.279D+00 0.860D+00
 Gap=     0.127 Goal=   None    Shift=    0.000
 RMSDP=4.03D-04 MaxDP=4.87D-02 DE=-9.95D-01 OVMax= 1.34D-01

 Cycle   4  Pass 0  IDiag  1:
 RMSU=  2.45D-04    CP:  9.92D-01  1.65D+00  4.11D-01
 E= -7503.35389968338     Delta-E=        0.016688527656 Rises=F Damp=F
 DIIS: error= 5.51D-03 at cycle   4 NSaved=   4.
 NSaved= 4 IEnMin= 3 EnMin= -7503.37058821104     IErMin= 3 ErrMin= 4.12D-03
 ErrMax= 5.51D-03  0.00D+00 EMaxC= 1.00D-01 BMatC= 4.35D-02 BMatP= 3.34D-02
 IDIUse=3 WtCom= 1.19D-01 WtEn= 8.81D-01
 Coeff-Com: -0.205D-01 0.589D-01 0.540D+00 0.422D+00
 Coeff-En:   0.000D+00 0.000D+00 0.592D+00 0.408D+00
 Coeff:     -0.243D-02 0.700D-02 0.585D+00 0.410D+00
 Gap=     0.130 Goal=   None    Shift=    0.000
 RMSDP=1.99D-04 MaxDP=2.25D-02 DE= 1.67D-02 OVMax= 5.97D-02

 Cycle   5  Pass 0  IDiag  1:
 RMSU=  6.53D-05    CP:  9.92D-01  1.56D+00  6.62D-01  4.78D-01
 E= -7503.39938733329     Delta-E=       -0.045487649908 Rises=F Damp=F
 DIIS: error= 9.81D-04 at cycle   5 NSaved=   5.
 NSaved= 5 IEnMin= 5 EnMin= -7503.39938733329     IErMin= 5 ErrMin= 9.81D-04
 ErrMax= 9.81D-04  0.00D+00 EMaxC= 1.00D-01 BMatC= 1.25D-03 BMatP= 3.34D-02
 IDIUse=3 WtCom= 9.90D-01 WtEn= 9.81D-03
 Coeff-Com:  0.159D-02 0.683D-02 0.252D+00 0.184D+00 0.556D+00
 Coeff-En:   0.000D+00 0.000D+00 0.000D+00 0.000D+00 0.100D+01
 Coeff:      0.157D-02 0.676D-02 0.249D+00 0.182D+00 0.561D+00
 Gap=     0.130 Goal=   None    Shift=    0.000
 RMSDP=4.56D-05 MaxDP=5.92D-03 DE=-4.55D-02 OVMax= 1.30D-02

 Cycle   6  Pass 0  IDiag  1:
 RMSU=  2.55D-05    CP:  9.92D-01  1.54D+00  7.01D-01  4.69D-01  5.36D-01
 E= -7503.40013195380     Delta-E=       -0.000744620511 Rises=F Damp=F
 DIIS: error= 4.66D-04 at cycle   6 NSaved=   6.
 NSaved= 6 IEnMin= 6 EnMin= -7503.40013195380     IErMin= 6 ErrMin= 4.66D-04
 ErrMax= 4.66D-04  0.00D+00 EMaxC= 1.00D-01 BMatC= 2.82D-04 BMatP= 1.25D-03
 IDIUse=3 WtCom= 9.95D-01 WtEn= 4.66D-03
 Coeff-Com:  0.247D-02 0.471D-04 0.119D+00 0.834D-01 0.358D+00 0.437D+00
 Coeff-En:   0.000D+00 0.000D+00 0.000D+00 0.000D+00 0.215D+00 0.785D+00
 Coeff:      0.246D-02 0.469D-04 0.118D+00 0.830D-01 0.357D+00 0.439D+00
 Gap=     0.131 Goal=   None    Shift=    0.000
 RMSDP=1.92D-05 MaxDP=1.83D-03 DE=-7.45D-04 OVMax= 8.41D-03

 Cycle   7  Pass 0  IDiag  1:
 RMSU=  7.41D-06    CP:  9.92D-01  1.54D+00  7.00D-01  4.69D-01  6.60D-01
                    CP:  3.85D-01
 E= -7503.40040553989     Delta-E=       -0.000273586096 Rises=F Damp=F
 DIIS: error= 1.47D-04 at cycle   7 NSaved=   7.
 NSaved= 7 IEnMin= 7 EnMin= -7503.40040553989     IErMin= 7 ErrMin= 1.47D-04
 ErrMax= 1.47D-04  0.00D+00 EMaxC= 1.00D-01 BMatC= 2.46D-05 BMatP= 2.82D-04
 IDIUse=3 WtCom= 9.99D-01 WtEn= 1.47D-03
 Coeff-Com:  0.142D-02-0.114D-02 0.328D-01 0.215D-01 0.128D+00 0.262D+00
 Coeff-Com:  0.556D+00
 Coeff-En:   0.000D+00 0.000D+00 0.000D+00 0.000D+00 0.000D+00 0.564D-01
 Coeff-En:   0.944D+00
 Coeff:      0.142D-02-0.114D-02 0.327D-01 0.215D-01 0.128D+00 0.261D+00
 Coeff:      0.556D+00
 Gap=     0.130 Goal=   None    Shift=    0.000
 RMSDP=6.57D-06 MaxDP=6.46D-04 DE=-2.74D-04 OVMax= 3.06D-03

 Initial convergence to 1.0D-05 achieved.  Increase integral accuracy.
 Cycle   8  Pass 1  IDiag  1:
 E= -7503.40043222683     Delta-E=       -0.000026686934 Rises=F Damp=F
 DIIS: error= 9.30D-05 at cycle   1 NSaved=   1.
 NSaved= 1 IEnMin= 1 EnMin= -7503.40043222683     IErMin= 1 ErrMin= 9.30D-05
 ErrMax= 9.30D-05  0.00D+00 EMaxC= 1.00D-01 BMatC= 1.14D-05 BMatP= 1.14D-05
 IDIUse=1 WtCom= 1.00D+00 WtEn= 0.00D+00
 Coeff-Com:  0.100D+01
 Coeff:      0.100D+01
 Gap=     0.131 Goal=   None    Shift=    0.000
 RMSDP=6.57D-06 MaxDP=6.46D-04 DE=-2.67D-05 OVMax= 3.41D-03

 Cycle   9  Pass 1  IDiag  1:
 RMSU=  3.67D-05    CP:  1.00D+00
 E= -7503.40041295858     Delta-E=        0.000019268247 Rises=F Damp=F
 DIIS: error= 1.51D-04 at cycle   2 NSaved=   2.
 NSaved= 2 IEnMin= 1 EnMin= -7503.40043222683     IErMin= 1 ErrMin= 9.30D-05
 ErrMax= 1.51D-04  0.00D+00 EMaxC= 1.00D-01 BMatC= 3.02D-05 BMatP= 1.14D-05
 IDIUse=3 WtCom= 4.48D-01 WtEn= 5.52D-01
 Coeff-Com:  0.638D+00 0.362D+00
 Coeff-En:   0.714D+00 0.286D+00
 Coeff:      0.680D+00 0.320D+00
 Gap=     0.131 Goal=   None    Shift=    0.000
 RMSDP=5.68D-06 MaxDP=5.43D-04 DE= 1.93D-05 OVMax= 2.74D-03

 Cycle  10  Pass 1  IDiag  1:
 RMSU=  5.60D-06    CP:  1.00D+00  9.74D-01
 E= -7503.40044376887     Delta-E=       -0.000030810292 Rises=F Damp=F
 DIIS: error= 2.38D-05 at cycle   3 NSaved=   3.
 NSaved= 3 IEnMin= 3 EnMin= -7503.40044376887     IErMin= 3 ErrMin= 2.38D-05
 ErrMax= 2.38D-05  0.00D+00 EMaxC= 1.00D-01 BMatC= 6.85D-07 BMatP= 1.14D-05
 IDIUse=1 WtCom= 1.00D+00 WtEn= 0.00D+00
 Coeff-Com:  0.121D+00 0.123D+00 0.755D+00
 Coeff:      0.121D+00 0.123D+00 0.755D+00
 Gap=     0.131 Goal=   None    Shift=    0.000
 RMSDP=1.38D-06 MaxDP=1.89D-04 DE=-3.08D-05 OVMax= 5.40D-04

 Cycle  11  Pass 1  IDiag  1:
 RMSU=  1.20D-06    CP:  1.00D+00  9.83D-01  8.94D-01
 E= -7503.40044377771     Delta-E=       -0.000000008842 Rises=F Damp=F
 DIIS: error= 2.06D-05 at cycle   4 NSaved=   4.
 NSaved= 4 IEnMin= 4 EnMin= -7503.40044377771     IErMin= 4 ErrMin= 2.06D-05
 ErrMax= 2.06D-05  0.00D+00 EMaxC= 1.00D-01 BMatC= 7.49D-07 BMatP= 6.85D-07
 IDIUse=1 WtCom= 1.00D+00 WtEn= 0.00D+00
 Coeff-Com: -0.589D-03 0.384D-01 0.532D+00 0.430D+00
 Coeff:     -0.589D-03 0.384D-01 0.532D+00 0.430D+00
 Gap=     0.131 Goal=   None    Shift=    0.000
 RMSDP=7.33D-07 MaxDP=9.87D-05 DE=-8.84D-09 OVMax= 2.21D-04

 Cycle  12  Pass 1  IDiag  1:
 RMSU=  1.54D-07    CP:  1.00D+00  9.85D-01  9.23D-01  4.21D-01
 E= -7503.40044446553     Delta-E=       -0.000000687811 Rises=F Damp=F
 DIIS: error= 2.70D-06 at cycle   5 NSaved=   5.
 NSaved= 5 IEnMin= 5 EnMin= -7503.40044446553     IErMin= 5 ErrMin= 2.70D-06
 ErrMax= 2.70D-06  0.00D+00 EMaxC= 1.00D-01 BMatC= 1.18D-08 BMatP= 6.85D-07
 IDIUse=1 WtCom= 1.00D+00 WtEn= 0.00D+00
 Coeff-Com: -0.252D-02 0.209D-01 0.309D+00 0.260D+00 0.412D+00
 Coeff:     -0.252D-02 0.209D-01 0.309D+00 0.260D+00 0.412D+00
 Gap=     0.131 Goal=   None    Shift=    0.000
 RMSDP=9.54D-08 MaxDP=1.15D-05 DE=-6.88D-07 OVMax= 3.62D-05

 Cycle  13  Pass 1  IDiag  1:
 RMSU=  6.01D-08    CP:  1.00D+00  9.85D-01  9.23D-01  4.38D-01  5.36D-01
 E= -7503.40044447628     Delta-E=       -0.000000010750 Rises=F Damp=F
 DIIS: error= 6.26D-07 at cycle   6 NSaved=   6.
 NSaved= 6 IEnMin= 6 EnMin= -7503.40044447628     IErMin= 6 ErrMin= 6.26D-07
 ErrMax= 6.26D-07  0.00D+00 EMaxC= 1.00D-01 BMatC= 5.05D-10 BMatP= 1.18D-08
 IDIUse=1 WtCom= 1.00D+00 WtEn= 0.00D+00
 Coeff-Com: -0.142D-02 0.980D-02 0.150D+00 0.126D+00 0.240D+00 0.476D+00
 Coeff:     -0.142D-02 0.980D-02 0.150D+00 0.126D+00 0.240D+00 0.476D+00
 Gap=     0.131 Goal=   None    Shift=    0.000
 RMSDP=2.91D-08 MaxDP=3.40D-06 DE=-1.08D-08 OVMax= 1.20D-05

 Cycle  14  Pass 1  IDiag  1:
 RMSU=  2.00D-08    CP:  1.00D+00  9.85D-01  9.23D-01  4.37D-01  6.04D-01
                    CP:  6.96D-01
 E= -7503.40044447680     Delta-E=       -0.000000000528 Rises=F Damp=F
 DIIS: error= 1.92D-07 at cycle   7 NSaved=   7.
 NSaved= 7 IEnMin= 7 EnMin= -7503.40044447680     IErMin= 7 ErrMin= 1.92D-07
 ErrMax= 1.92D-07  0.00D+00 EMaxC= 1.00D-01 BMatC= 6.47D-11 BMatP= 5.05D-10
 IDIUse=1 WtCom= 1.00D+00 WtEn= 0.00D+00
 Coeff-Com: -0.519D-03 0.306D-02 0.492D-01 0.414D-01 0.893D-01 0.291D+00
 Coeff-Com:  0.526D+00
 Coeff:     -0.519D-03 0.306D-02 0.492D-01 0.414D-01 0.893D-01 0.291D+00
 Coeff:      0.526D+00
 Gap=     0.131 Goal=   None    Shift=    0.000
 RMSDP=9.59D-09 MaxDP=9.98D-07 DE=-5.28D-10 OVMax= 4.85D-06

 SCF Done:  E(RB3LYP) =  -7503.40044448     A.U. after   14 cycles
            NFock= 14  Conv=0.96D-08     -V/T= 2.0016
 KE= 7.491606876559D+03 PE=-2.977833708815D+04 EE= 8.803105030949D+03
 Leave Link  502 at Fri Jan 17 13:07:07 2020, MaxMem=  6710886400 cpu:            2915.0 elap:             729.5
 (Enter /apps/gaussian/g16-a03/l601.exe)
 Copying SCF densities to generalized density rwf, IOpCl= 0 IROHF=0.
 Hyperfine terms turned off by default for NAtoms > 100.

 **********************************************************************

            Population analysis using the SCF density.

 **********************************************************************

 Orbital symmetries:
       Occupied  (A) (A) (A) (A) (A) (A) (A) (A) (A) (A) (A) (A)
                 (A) (A) (A) (A) (A) (A) (A) (A) (A) (A) (A) (A)
                 (A) (A) (A) (A) (A) (A) (A) (A) (A) (A) (A) (A)
                 (A) (A) (A) (A) (A) (A) (A) (A) (A) (A) (A) (A)
                 (A) (A) (A) (A) (A) (A) (A) (A) (A) (A) (A) (A)
                 (A) (A) (A) (A) (A) (A) (A) (A) (A) (A) (A) (A)
                 (A) (A) (A) (A) (A) (A) (A) (A) (A) (A) (A) (A)
                 (A) (A) (A) (A) (A) (A) (A) (A) (A) (A) (A) (A)
                 (A) (A) (A) (A) (A) (A) (A) (A) (A) (A) (A) (A)
                 (A) (A) (A) (A) (A) (A) (A) (A) (A) (A) (A) (A)
                 (A) (A) (A) (A) (A) (A) (A) (A) (A) (A) (A) (A)
                 (A) (A) (A) (A) (A) (A) (A) (A) (A) (A) (A) (A)
                 (A) (A) (A) (A) (A) (A) (A) (A) (A) (A) (A) (A)
                 (A) (A) (A) (A) (A) (A) (A) (A) (A) (A) (A) (A)
                 (A) (A) (A) (A) (A) (A) (A) (A) (A) (A) (A) (A)
                 (A) (A) (A) (A) (A) (A) (A) (A) (A) (A) (A) (A)
                 (A) (A) (A) (A) (A)
       Virtual   (A) (A) (A) (A) (A) (A) (A) (A) (A) (A) (A) (A)
                 (A) (A) (A) (A) (A) (A) (A) (A) (A) (A) (A) (A)
                 (A) (A) (A) (A) (A) (A) (A) (A) (A) (A) (A) (A)
                 (A) (A) (A) (A) (A) (A) (A) (A) (A) (A) (A) (A)
                 (A) (A) (A) (A) (A) (A) (A) (A) (A) (A) (A) (A)
                 (A) (A) (A) (A) (A) (A) (A) (A) (A) (A) (A) (A)
                 (A) (A) (A) (A) (A) (A) (A) (A) (A) (A) (A) (A)
                 (A) (A) (A) (A) (A) (A) (A) (A) (A) (A) (A) (A)
                 (A) (A) (A) (A) (A) (A) (A) (A) (A) (A) (A) (A)
                 (A) (A) (A) (A) (A) (A) (A) (A) (A) (A) (A) (A)
                 (A) (A) (A) (A) (A) (A) (A) (A) (A) (A) (A) (A)
                 (A) (A) (A) (A) (A) (A) (A) (A) (A) (A) (A) (A)
                 (A) (A) (A) (A) (A) (A) (A) (A) (A) (A) (A) (A)
                 (A) (A) (A) (A) (A) (A) (A) (A) (A) (A) (A) (A)
                 (A) (A) (A) (A) (A) (A) (A) (A) (A) (A) (A) (A)
                 (A) (A) (A) (A) (A) (A) (A) (A) (A) (A) (A) (A)
                 (A) (A) (A) (A) (A) (A) (A) (A) (A) (A) (A) (A)
                 (A) (A) (A) (A) (A) (A) (A) (A) (A) (A) (A) (A)
                 (A) (A) (A) (A) (A) (A) (A) (A) (A) (A) (A) (A)
                 (A) (A) (A) (A) (A) (A) (A) (A) (A) (A) (A) (A)
                 (A) (A) (A) (A) (A) (A) (A) (A) (A) (A) (A) (A)
                 (A) (A) (A) (A) (A) (A) (A) (A) (A) (A) (A) (A)
                 (A) (A) (A) (A) (A) (A) (A) (A) (A) (A) (A) (A)
                 (A) (A) (A) (A) (A) (A) (A) (A) (A) (A) (A) (A)
                 (A) (A) (A) (A) (A) (A) (A) (A) (A) (A) (A) (A)
                 (A) (A) (A) (A) (A) (A) (A) (A) (A) (A) (A) (A)
                 (A) (A) (A) (A) (A) (A) (A) (A) (A) (A) (A) (A)
                 (A) (A) (A) (A) (A) (A) (A) (A) (A) (A) (A) (A)
                 (A) (A) (A) (A) (A) (A) (A) (A) (A) (A) (A) (A)
                 (A) (A) (A) (A) (A) (A) (A) (A) (A) (A) (A) (A)
                 (A) (A) (A) (A) (A) (A) (A) (A) (A) (A) (A) (A)
                 (A) (A) (A) (A) (A) (A) (A) (A) (A) (A) (A) (A)
                 (A) (A) (A) (A) (A) (A) (A) (A) (A) (A) (A) (A)
                 (A) (A) (A) (A) (A) (A) (A) (A) (A) (A) (A) (A)
                 (A) (A) (A) (A) (A) (A) (A) (A) (A) (A) (A) (A)
                 (A) (A) (A) (A) (A) (A) (A) (A) (A) (A) (A) (A)
                 (A) (A) (A) (A) (A) (A) (A) (A) (A) (A) (A) (A)
                 (A) (A) (A) (A) (A) (A) (A) (A) (A) (A) (A) (A)
                 (A) (A) (A) (A) (A) (A) (A) (A) (A) (A) (A) (A)
                 (A) (A) (A) (A) (A) (A) (A) (A) (A) (A) (A) (A)
                 (A) (A) (A) (A) (A) (A) (A) (A) (A) (A) (A) (A)
                 (A) (A) (A) (A) (A) (A) (A) (A) (A) (A) (A) (A)
                 (A) (A) (A) (A) (A) (A) (A) (A) (A) (A) (A) (A)
                 (A) (A) (A) (A) (A) (A) (A) (A) (A) (A) (A) (A)
                 (A) (A) (A) (A) (A) (A) (A) (A) (A) (A) (A) (A)
                 (A) (A) (A) (A) (A) (A) (A) (A) (A) (A) (A) (A)
                 (A) (A) (A) (A) (A) (A) (A) (A) (A) (A) (A) (A)
                 (A) (A) (A) (A) (A) (A) (A) (A) (A) (A) (A) (A)
                 (A) (A) (A) (A) (A) (A) (A) (A) (A) (A) (A) (A)
                 (A) (A) (A) (A) (A) (A) (A) (A) (A) (A) (A) (A)
                 (A) (A) (A) (A) (A) (A) (A) (A) (A) (A) (A) (A)
                 (A) (A) (A) (A) (A) (A) (A) (A) (A) (A) (A) (A)
                 (A) (A) (A) (A) (A) (A) (A) (A) (A) (A) (A) (A)
                 (A) (A) (A) (A) (A) (A) (A) (A) (A) (A) (A) (A)
                 (A) (A) (A) (A) (A) (A) (A) (A) (A) (A) (A) (A)
                 (A) (A) (A) (A) (A) (A) (A) (A) (A) (A) (A) (A)
                 (A) (A) (A) (A) (A) (A) (A) (A) (A) (A) (A) (A)
                 (A) (A) (A) (A) (A) (A) (A) (A) (A) (A) (A) (A)
                 (A) (A) (A) (A) (A) (A) (A) (A) (A) (A) (A) (A)
                 (A) (A) (A) (A) (A) (A) (A) (A) (A) (A) (A) (A)
                 (A) (A) (A) (A) (A) (A) (A) (A) (A) (A) (A) (A)
                 (A) (A) (A) (A) (A) (A) (A) (A) (A) (A) (A) (A)
                 (A) (A) (A) (A) (A) (A) (A) (A) (A) (A) (A) (A)
                 (A) (A) (A) (A) (A) (A) (A) (A) (A) (A) (A) (A)
                 (A) (A) (A) (A) (A) (A) (A) (A) (A) (A) (A) (A)
                 (A) (A) (A) (A) (A) (A) (A) (A) (A) (A) (A) (A)
                 (A) (A) (A) (A) (A) (A) (A) (A) (A) (A) (A) (A)
                 (A) (A) (A) (A) (A) (A) (A) (A) (A) (A) (A) (A)
                 (A) (A) (A) (A) (A) (A) (A) (A) (A) (A) (A) (A)
                 (A) (A) (A) (A) (A) (A) (A) (A) (A) (A) (A) (A)
                 (A) (A) (A) (A) (A) (A) (A) (A) (A) (A) (A) (A)
                 (A) (A) (A) (A) (A) (A) (A) (A) (A) (A) (A) (A)
                 (A) (A) (A) (A) (A) (A) (A) (A) (A) (A) (A) (A)
                 (A) (A) (A) (A) (A) (A) (A) (A) (A) (A) (A) (A)
                 (A) (A) (A) (A) (A) (A) (A) (A) (A) (A) (A) (A)
                 (A) (A) (A) (A) (A) (A) (A) (A) (A) (A) (A) (A)
                 (A) (A) (A) (A) (A) (A) (A) (A) (A) (A) (A) (A)
                 (A) (A) (A) (A) (A) (A) (A) (A) (A) (A) (A) (A)
                 (A) (A) (A) (A) (A) (A) (A) (A) (A) (A) (A) (A)
                 (A) (A) (A) (A) (A) (A) (A) (A) (A) (A) (A) (A)
                 (A) (A) (A) (A) (A) (A) (A) (A) (A) (A) (A) (A)
                 (A) (A) (A) (A) (A) (A) (A) (A) (A) (A) (A) (A)
                 (A) (A) (A)
 The electronic state is 1-A.
 Alpha  occ. eigenvalues -- -482.84286-482.83795 -88.88265 -88.88028 -62.49557
 Alpha  occ. eigenvalues --  -62.49071 -56.31612 -56.31191 -56.31191 -56.31127
 Alpha  occ. eigenvalues --  -56.30706 -56.30702 -19.16609 -19.16022 -10.24843
 Alpha  occ. eigenvalues --  -10.24587 -10.24506 -10.24486 -10.22939 -10.22253
 Alpha  occ. eigenvalues --  -10.21722 -10.21545 -10.18980 -10.18964 -10.17078
 Alpha  occ. eigenvalues --  -10.16655 -10.16265 -10.15971 -10.15918 -10.15731
 Alpha  occ. eigenvalues --  -10.15511 -10.15421 -10.15406 -10.15402 -10.15367
 Alpha  occ. eigenvalues --  -10.15355 -10.15318 -10.15291 -10.15287 -10.15255
 Alpha  occ. eigenvalues --  -10.15240 -10.15209 -10.15192 -10.15150 -10.15109
 Alpha  occ. eigenvalues --  -10.15092 -10.15056 -10.15007 -10.14661 -10.14549
 Alpha  occ. eigenvalues --   -8.70516  -8.70035  -7.96863  -7.96641  -6.53718
 Alpha  occ. eigenvalues --   -6.53240  -6.52328  -6.52316  -6.51849  -6.51828
 Alpha  occ. eigenvalues --   -5.93197  -5.92972  -5.92790  -5.92572  -5.92394
 Alpha  occ. eigenvalues --   -5.92164  -2.64799  -2.64400  -2.64389  -2.64320
 Alpha  occ. eigenvalues --   -2.63924  -2.63906  -2.63286  -2.63286  -2.62803
 Alpha  occ. eigenvalues --   -2.62803  -1.10603  -1.07713  -0.90735  -0.89490
 Alpha  occ. eigenvalues --   -0.83233  -0.82518  -0.82241  -0.81716  -0.81324
 Alpha  occ. eigenvalues --   -0.80703  -0.80150  -0.79547  -0.78074  -0.77723
 Alpha  occ. eigenvalues --   -0.76809  -0.75720  -0.74707  -0.74458  -0.73162
 Alpha  occ. eigenvalues --   -0.72157  -0.71551  -0.69995  -0.68979  -0.67701
 Alpha  occ. eigenvalues --   -0.66457  -0.65496  -0.63612  -0.63506  -0.61793
 Alpha  occ. eigenvalues --   -0.61258  -0.60103  -0.59863  -0.59548  -0.58817
 Alpha  occ. eigenvalues --   -0.58450  -0.57458  -0.57140  -0.56938  -0.56645
 Alpha  occ. eigenvalues --   -0.56330  -0.55902  -0.55068  -0.54077  -0.51149
 Alpha  occ. eigenvalues --   -0.50325  -0.50033  -0.49521  -0.49051  -0.48315
 Alpha  occ. eigenvalues --   -0.48071  -0.47788  -0.46782  -0.46266  -0.46064
 Alpha  occ. eigenvalues --   -0.45847  -0.45362  -0.45039  -0.44545  -0.44117
 Alpha  occ. eigenvalues --   -0.43934  -0.43735  -0.43477  -0.43029  -0.42407
 Alpha  occ. eigenvalues --   -0.42249  -0.42055  -0.41673  -0.41651  -0.41080
 Alpha  occ. eigenvalues --   -0.40607  -0.40311  -0.39779  -0.39539  -0.39406
 Alpha  occ. eigenvalues --   -0.39227  -0.39004  -0.38907  -0.38160  -0.38059
 Alpha  occ. eigenvalues --   -0.37771  -0.37429  -0.37173  -0.37138  -0.36852
 Alpha  occ. eigenvalues --   -0.36503  -0.36252  -0.35823  -0.35434  -0.35331
 Alpha  occ. eigenvalues --   -0.35081  -0.34540  -0.34392  -0.34336  -0.34236
 Alpha  occ. eigenvalues --   -0.33872  -0.33691  -0.33587  -0.33527  -0.33354
 Alpha  occ. eigenvalues --   -0.33293  -0.33255  -0.32936  -0.32732  -0.32501
 Alpha  occ. eigenvalues --   -0.32389  -0.32161  -0.31957  -0.31759  -0.31286
 Alpha  occ. eigenvalues --   -0.31116  -0.30426  -0.30370  -0.29914  -0.29733
 Alpha  occ. eigenvalues --   -0.29655  -0.28384  -0.28192  -0.26401  -0.24666
 Alpha  occ. eigenvalues --   -0.24287  -0.19398
 Alpha virt. eigenvalues --   -0.06344  -0.03606  -0.01144   0.00511   0.01881
 Alpha virt. eigenvalues --    0.02438   0.03267   0.03621   0.04120   0.04358
 Alpha virt. eigenvalues --    0.04650   0.04793   0.04981   0.05155   0.05203
 Alpha virt. eigenvalues --    0.05487   0.05781   0.05890   0.06259   0.06313
 Alpha virt. eigenvalues --    0.06522   0.06775   0.07060   0.07326   0.07669
 Alpha virt. eigenvalues --    0.07898   0.07974   0.08317   0.08846   0.09142
 Alpha virt. eigenvalues --    0.09456   0.09575   0.09789   0.10058   0.10215
 Alpha virt. eigenvalues --    0.10495   0.10999   0.11263   0.11591   0.11664
 Alpha virt. eigenvalues --    0.11971   0.12103   0.12307   0.12732   0.13075
 Alpha virt. eigenvalues --    0.13100   0.13218   0.13312   0.13503   0.13537
 Alpha virt. eigenvalues --    0.13816   0.13992   0.14169   0.14334   0.14555
 Alpha virt. eigenvalues --    0.14827   0.15036   0.15423   0.15595   0.15766
 Alpha virt. eigenvalues --    0.15879   0.16000   0.16734   0.16940   0.17130
 Alpha virt. eigenvalues --    0.17220   0.17984   0.18092   0.18204   0.18475
 Alpha virt. eigenvalues --    0.18588   0.18936   0.19263   0.19502   0.19761
 Alpha virt. eigenvalues --    0.20258   0.20326   0.20539   0.20822   0.21094
 Alpha virt. eigenvalues --    0.21224   0.21560   0.21721   0.21811   0.21898
 Alpha virt. eigenvalues --    0.22079   0.22480   0.22573   0.23174   0.23435
 Alpha virt. eigenvalues --    0.23550   0.23842   0.23976   0.24138   0.24324
 Alpha virt. eigenvalues --    0.24519   0.24789   0.25282   0.25333   0.25729
 Alpha virt. eigenvalues --    0.25782   0.25883   0.26589   0.27092   0.27292
 Alpha virt. eigenvalues --    0.27638   0.27795   0.28508   0.28860   0.29257
 Alpha virt. eigenvalues --    0.29670   0.29982   0.30154   0.30552   0.30967
 Alpha virt. eigenvalues --    0.31115   0.31436   0.31644   0.32033   0.32613
 Alpha virt. eigenvalues --    0.32724   0.32968   0.33161   0.33269   0.33460
 Alpha virt. eigenvalues --    0.33523   0.34004   0.34359   0.34429   0.35292
 Alpha virt. eigenvalues --    0.35421   0.35636   0.35812   0.36077   0.36346
 Alpha virt. eigenvalues --    0.36414   0.36552   0.36886   0.37203   0.37290
 Alpha virt. eigenvalues --    0.37562   0.38000   0.38097   0.38445   0.38974
 Alpha virt. eigenvalues --    0.39437   0.39962   0.40075   0.40547   0.40680
 Alpha virt. eigenvalues --    0.41358   0.42067   0.42407   0.42476   0.42940
 Alpha virt. eigenvalues --    0.43187   0.43325   0.43559   0.43613   0.43869
 Alpha virt. eigenvalues --    0.44295   0.45363   0.45733   0.46096   0.46397
 Alpha virt. eigenvalues --    0.46544   0.46773   0.47850   0.48130   0.48570
 Alpha virt. eigenvalues --    0.48728   0.49138   0.49654   0.50089   0.50487
 Alpha virt. eigenvalues --    0.50718   0.51147   0.51335   0.51922   0.52119
 Alpha virt. eigenvalues --    0.52899   0.53210   0.53622   0.54076   0.54158
 Alpha virt. eigenvalues --    0.54260   0.54471   0.54888   0.55147   0.55815
 Alpha virt. eigenvalues --    0.56070   0.56299   0.56478   0.56682   0.56865
 Alpha virt. eigenvalues --    0.56948   0.57114   0.57368   0.57387   0.57781
 Alpha virt. eigenvalues --    0.58003   0.58100   0.58410   0.58531   0.58656
 Alpha virt. eigenvalues --    0.59027   0.59086   0.59123   0.59279   0.59429
 Alpha virt. eigenvalues --    0.59528   0.59605   0.59692   0.59729   0.59805
 Alpha virt. eigenvalues --    0.60032   0.60199   0.60209   0.60269   0.60477
 Alpha virt. eigenvalues --    0.60547   0.60725   0.60841   0.60954   0.61104
 Alpha virt. eigenvalues --    0.61239   0.61349   0.61593   0.61608   0.61658
 Alpha virt. eigenvalues --    0.61834   0.61874   0.62148   0.62272   0.62324
 Alpha virt. eigenvalues --    0.62492   0.62704   0.62887   0.62963   0.63099
 Alpha virt. eigenvalues --    0.63148   0.63263   0.63379   0.63512   0.63712
 Alpha virt. eigenvalues --    0.63830   0.63925   0.64052   0.64143   0.64393
 Alpha virt. eigenvalues --    0.64458   0.64546   0.64643   0.65075   0.65238
 Alpha virt. eigenvalues --    0.65372   0.65541   0.65760   0.65976   0.66071
 Alpha virt. eigenvalues --    0.66213   0.66393   0.66578   0.66751   0.67043
 Alpha virt. eigenvalues --    0.67186   0.67404   0.67587   0.68107   0.68200
 Alpha virt. eigenvalues --    0.68492   0.68854   0.69047   0.69222   0.69912
 Alpha virt. eigenvalues --    0.70156   0.70578   0.70972   0.71133   0.71749
 Alpha virt. eigenvalues --    0.72337   0.72488   0.72929   0.73129   0.73958
 Alpha virt. eigenvalues --    0.74268   0.74629   0.75213   0.76000   0.76185
 Alpha virt. eigenvalues --    0.77661   0.77916   0.78350   0.79460   0.79610
 Alpha virt. eigenvalues --    0.80312   0.81420   0.81543   0.82436   0.83170
 Alpha virt. eigenvalues --    0.84263   0.84615   0.85519   0.86146   0.86759
 Alpha virt. eigenvalues --    0.87082   0.87752   0.88360   0.88996   0.89261
 Alpha virt. eigenvalues --    0.89940   0.90024   0.90830   0.91132   0.91620
 Alpha virt. eigenvalues --    0.91989   0.92281   0.92682   0.93069   0.93336
 Alpha virt. eigenvalues --    0.93629   0.94673   0.94902   0.95411   0.95705
 Alpha virt. eigenvalues --    0.95941   0.96257   0.96606   0.96811   0.97410
 Alpha virt. eigenvalues --    0.98119   0.98618   0.98895   0.99146   0.99456
 Alpha virt. eigenvalues --    1.00068   1.00356   1.00533   1.01014   1.02204
 Alpha virt. eigenvalues --    1.03329   1.04570   1.04975   1.05193   1.05443
 Alpha virt. eigenvalues --    1.05771   1.07052   1.07318   1.07714   1.08186
 Alpha virt. eigenvalues --    1.09010   1.09485   1.09916   1.10425   1.10703
 Alpha virt. eigenvalues --    1.11834   1.12557   1.13197   1.13706   1.13951
 Alpha virt. eigenvalues --    1.14367   1.16394   1.16727   1.16824   1.17304
 Alpha virt. eigenvalues --    1.18400   1.18637   1.19419   1.20003   1.20853
 Alpha virt. eigenvalues --    1.22055   1.22804   1.23022   1.23304   1.23591
 Alpha virt. eigenvalues --    1.24396   1.25042   1.25470   1.26105   1.26433
 Alpha virt. eigenvalues --    1.26511   1.26551   1.26653   1.27477   1.27716
 Alpha virt. eigenvalues --    1.28351   1.28789   1.30474   1.31058   1.31165
 Alpha virt. eigenvalues --    1.31359   1.31386   1.32498   1.32827   1.33312
 Alpha virt. eigenvalues --    1.34406   1.35278   1.35549   1.36108   1.36946
 Alpha virt. eigenvalues --    1.38002   1.39102   1.39265   1.40855   1.41162
 Alpha virt. eigenvalues --    1.41601   1.41912   1.42311   1.42933   1.43024
 Alpha virt. eigenvalues --    1.43595   1.44150   1.44552   1.44802   1.45113
 Alpha virt. eigenvalues --    1.45485   1.45730   1.46301   1.46457   1.46857
 Alpha virt. eigenvalues --    1.46957   1.47249   1.47483   1.47812   1.48276
 Alpha virt. eigenvalues --    1.48345   1.48962   1.49097   1.49585   1.49919
 Alpha virt. eigenvalues --    1.50096   1.50310   1.50446   1.50615   1.51534
 Alpha virt. eigenvalues --    1.51588   1.52220   1.52716   1.53051   1.53436
 Alpha virt. eigenvalues --    1.53572   1.53815   1.54424   1.54828   1.54949
 Alpha virt. eigenvalues --    1.55292   1.55431   1.55814   1.55950   1.56410
 Alpha virt. eigenvalues --    1.56418   1.56813   1.57161   1.57817   1.57969
 Alpha virt. eigenvalues --    1.58079   1.58574   1.58635   1.59233   1.59506
 Alpha virt. eigenvalues --    1.59754   1.60480   1.60776   1.60858   1.61236
 Alpha virt. eigenvalues --    1.61626   1.61748   1.62030   1.62730   1.62906
 Alpha virt. eigenvalues --    1.63202   1.63768   1.64057   1.64201   1.64719
 Alpha virt. eigenvalues --    1.64889   1.65303   1.65691   1.66314   1.66627
 Alpha virt. eigenvalues --    1.66890   1.67029   1.67308   1.67535   1.67628
 Alpha virt. eigenvalues --    1.67993   1.68399   1.68690   1.68759   1.69095
 Alpha virt. eigenvalues --    1.69351   1.69407   1.69463   1.69612   1.69826
 Alpha virt. eigenvalues --    1.70123   1.70481   1.71075   1.71126   1.71237
 Alpha virt. eigenvalues --    1.71373   1.71760   1.72067   1.72459   1.72683
 Alpha virt. eigenvalues --    1.72882   1.73087   1.73585   1.73869   1.74009
 Alpha virt. eigenvalues --    1.74108   1.74520   1.74981   1.75137   1.75244
 Alpha virt. eigenvalues --    1.75633   1.76092   1.76190   1.76556   1.76853
 Alpha virt. eigenvalues --    1.77015   1.77097   1.77591   1.78061   1.78374
 Alpha virt. eigenvalues --    1.78567   1.78851   1.79410   1.80070   1.80201
 Alpha virt. eigenvalues --    1.80274   1.80614   1.81416   1.81832   1.83056
 Alpha virt. eigenvalues --    1.83138   1.83828   1.84636   1.84853   1.85538
 Alpha virt. eigenvalues --    1.85837   1.86414   1.86565   1.86868   1.87551
 Alpha virt. eigenvalues --    1.88448   1.89592   1.90140   1.90526   1.90723
 Alpha virt. eigenvalues --    1.91575   1.91924   1.92101   1.92348   1.92710
 Alpha virt. eigenvalues --    1.93089   1.93668   1.94332   1.94475   1.94834
 Alpha virt. eigenvalues --    1.95236   1.95528   1.95912   1.96092   1.97050
 Alpha virt. eigenvalues --    1.97441   1.97585   1.98342   1.98494   1.99157
 Alpha virt. eigenvalues --    1.99906   2.00520   2.01028   2.01376   2.01684
 Alpha virt. eigenvalues --    2.02091   2.02351   2.02543   2.02805   2.03463
 Alpha virt. eigenvalues --    2.03862   2.04190   2.04324   2.04598   2.04892
 Alpha virt. eigenvalues --    2.05487   2.05788   2.06395   2.06612   2.06907
 Alpha virt. eigenvalues --    2.07325   2.07455   2.08175   2.08327   2.08698
 Alpha virt. eigenvalues --    2.09098   2.09546   2.10090   2.10634   2.11010
 Alpha virt. eigenvalues --    2.12138   2.12531   2.12552   2.13293   2.14043
 Alpha virt. eigenvalues --    2.14781   2.15299   2.15468   2.15907   2.16114
 Alpha virt. eigenvalues --    2.16838   2.17946   2.18225   2.18311   2.18830
 Alpha virt. eigenvalues --    2.19413   2.19591   2.19808   2.20502   2.21906
 Alpha virt. eigenvalues --    2.21939   2.22422   2.23774   2.23987   2.24503
 Alpha virt. eigenvalues --    2.24995   2.25113   2.26145   2.26577   2.26921
 Alpha virt. eigenvalues --    2.27243   2.28583   2.29213   2.30045   2.30312
 Alpha virt. eigenvalues --    2.30570   2.31091   2.32056   2.32539   2.32612
 Alpha virt. eigenvalues --    2.32690   2.32938   2.33456   2.33837   2.34175
 Alpha virt. eigenvalues --    2.34572   2.34835   2.35740   2.36117   2.37944
 Alpha virt. eigenvalues --    2.38021   2.39034   2.39425   2.39813   2.40157
 Alpha virt. eigenvalues --    2.40940   2.41185   2.41696   2.42367   2.42725
 Alpha virt. eigenvalues --    2.43188   2.43318   2.43472   2.44726   2.45101
 Alpha virt. eigenvalues --    2.45252   2.45339   2.45935   2.46251   2.46661
 Alpha virt. eigenvalues --    2.47311   2.48234   2.48662   2.49276   2.49549
 Alpha virt. eigenvalues --    2.50013   2.50137   2.50320   2.50733   2.51178
 Alpha virt. eigenvalues --    2.51399   2.52174   2.52354   2.52728   2.53359
 Alpha virt. eigenvalues --    2.53682   2.53890   2.54037   2.54490   2.54608
 Alpha virt. eigenvalues --    2.54717   2.55050   2.55498   2.55839   2.56167
 Alpha virt. eigenvalues --    2.56427   2.56690   2.56790   2.56870   2.57429
 Alpha virt. eigenvalues --    2.57547   2.57684   2.58651   2.58869   2.58950
 Alpha virt. eigenvalues --    2.59309   2.59444   2.59754   2.60565   2.60780
 Alpha virt. eigenvalues --    2.61199   2.61435   2.62188   2.62652   2.62830
 Alpha virt. eigenvalues --    2.63074   2.63466   2.63748   2.63918   2.63970
 Alpha virt. eigenvalues --    2.64556   2.64662   2.64820   2.65488   2.65834
 Alpha virt. eigenvalues --    2.66085   2.66195   2.66645   2.66680   2.67389
 Alpha virt. eigenvalues --    2.67883   2.68091   2.68305   2.68706   2.69359
 Alpha virt. eigenvalues --    2.69797   2.70394   2.70651   2.71152   2.71289
 Alpha virt. eigenvalues --    2.71962   2.72467   2.72675   2.73194   2.73452
 Alpha virt. eigenvalues --    2.74167   2.74547   2.75133   2.75689   2.76242
 Alpha virt. eigenvalues --    2.76857   2.77303   2.77912   2.78295   2.78515
 Alpha virt. eigenvalues --    2.79094   2.79607   2.79996   2.80332   2.80864
 Alpha virt. eigenvalues --    2.81189   2.82002   2.82181   2.82449   2.82652
 Alpha virt. eigenvalues --    2.83560   2.83881   2.84036   2.84992   2.85303
 Alpha virt. eigenvalues --    2.85779   2.86076   2.86380   2.86461   2.86705
 Alpha virt. eigenvalues --    2.88188   2.88976   2.89222   2.90356   2.90687
 Alpha virt. eigenvalues --    2.91065   2.91153   2.91954   2.92112   2.92563
 Alpha virt. eigenvalues --    2.94128   2.94407   2.94681   2.95020   2.96139
 Alpha virt. eigenvalues --    2.96496   2.96651   2.97327   2.97847   2.98149
 Alpha virt. eigenvalues --    2.98666   2.99662   3.01036   3.02196   3.02332
 Alpha virt. eigenvalues --    3.02890   3.03734   3.04564   3.06186   3.06825
 Alpha virt. eigenvalues --    3.07711   3.08532   3.08714   3.09306   3.10307
 Alpha virt. eigenvalues --    3.10755   3.11478   3.13386   3.14274   3.16817
 Alpha virt. eigenvalues --    3.17499   3.18338   3.20969   3.22031   3.22780
 Alpha virt. eigenvalues --    3.23563   3.24583   3.27120   3.27469   3.28432
 Alpha virt. eigenvalues --    3.29154   3.29957   3.32050   3.33239   3.33621
 Alpha virt. eigenvalues --    3.34553   3.36770   3.36994   3.38552   3.39319
 Alpha virt. eigenvalues --    3.40131   3.40987   3.41092   3.41304   3.47943
 Alpha virt. eigenvalues --    3.68304   3.75684   3.76024   3.79615   3.81692
 Alpha virt. eigenvalues --    3.83021   3.83372   3.83495   3.83648   3.83979
 Alpha virt. eigenvalues --    3.84032   3.84299   3.84388   3.84866   3.85066
 Alpha virt. eigenvalues --    3.85921   3.86579   3.87169   3.87284   3.87325
 Alpha virt. eigenvalues --    3.88269   3.88562   3.88595   3.88844   3.89949
 Alpha virt. eigenvalues --    3.90295   3.90891   3.90935   3.91333   3.92022
 Alpha virt. eigenvalues --    3.94563   3.94688   3.97271   3.98898   4.04104
 Alpha virt. eigenvalues --    4.11131   4.11673   4.11702   4.12662   4.12723
 Alpha virt. eigenvalues --    4.13181   4.13413   4.13784   4.13861   4.14075
 Alpha virt. eigenvalues --    4.14708   4.15914   4.16610   4.17514   4.19196
 Alpha virt. eigenvalues --    4.19961   4.21406   4.22220   4.22704   4.22852
 Alpha virt. eigenvalues --    4.24430   4.24986   4.26909   4.28363   4.29532
 Alpha virt. eigenvalues --    4.31057   4.31288   4.31408   4.32779   4.33769
 Alpha virt. eigenvalues --    4.33826   4.34079   4.34619   4.34670   4.36096
 Alpha virt. eigenvalues --    4.36746   4.37075   4.50995   4.52480   4.55430
 Alpha virt. eigenvalues --    4.92283   4.99507   5.31354   5.46462   5.65529
 Alpha virt. eigenvalues --    5.78676   6.47466   6.48305   7.45841   7.46452
 Alpha virt. eigenvalues --    7.49986   7.50519   7.57716   7.60044   7.79883
 Alpha virt. eigenvalues --    7.80760  17.19946  17.21933  17.42667  17.44241
 Alpha virt. eigenvalues --   17.47675  17.52232  23.36836  23.54820  23.68387
 Alpha virt. eigenvalues --   23.79357  23.83323  23.84568  23.87034  23.87533
 Alpha virt. eigenvalues --   23.88229  23.88842  23.88920  23.89260  23.90005
 Alpha virt. eigenvalues --   23.90853  23.91477  23.91796  23.91950  23.92367
 Alpha virt. eigenvalues --   23.93389  23.93415  23.93862  23.93938  23.94794
 Alpha virt. eigenvalues --   23.95505  23.95693  23.96266  23.96793  23.97087
 Alpha virt. eigenvalues --   23.98015  23.98752  24.00107  24.00655  24.02115
 Alpha virt. eigenvalues --   24.03824  24.11696  24.11928  47.76778  47.77401
 Alpha virt. eigenvalues --   49.93012  49.95163 188.91266 188.92324 289.65522
 Alpha virt. eigenvalues --  289.66188 289.69777 289.70243 289.80111 289.82224
 Alpha virt. eigenvalues -- 1020.516461020.52405
          Condensed to atoms (all electrons):
 Mulliken charges:
               1
     1  C   -0.246556
     2  C    0.239643
     3  C   -0.038947
     4  C   -0.362305
     5  S    0.384180
     6  O   -0.380284
     7  H    0.122413
     8  C   -0.206347
     9  C    0.173704
    10  C   -0.001928
    11  C   -0.360877
    12  S    0.371829
    13  O   -0.321754
    14  H    0.112548
    15  C   -0.021620
    16  H    0.112393
    17  H    0.126177
    18  C   -0.225195
    19  H    0.127202
    20  H    0.125029
    21  C   -0.223366
    22  H    0.118513
    23  H    0.112712
    24  C   -0.239118
    25  H    0.111657
    26  H    0.116101
    27  C   -0.226213
    28  H    0.116967
    29  H    0.110897
    30  C   -0.218490
    31  H    0.108033
    32  H    0.110201
    33  C   -0.202654
    34  H    0.105656
    35  H    0.109030
    36  C   -0.225169
    37  H    0.114590
    38  H    0.106667
    39  C   -0.205903
    40  H    0.104746
    41  H    0.105643
    42  C   -0.204813
    43  H    0.104165
    44  H    0.102173
    45  C   -0.215017
    46  H    0.114789
    47  H    0.103413
    48  C   -0.221738
    49  H    0.105682
    50  H    0.106391
    51  C   -0.222592
    52  H    0.107805
    53  H    0.108519
    54  C   -0.311739
    55  H    0.111434
    56  H    0.105216
    57  H    0.106559
    58  C   -0.108569
    59  H    0.149163
    60  H    0.124299
    61  C   -0.205793
    62  H    0.115681
    63  H    0.106680
    64  C   -0.206879
    65  H    0.123064
    66  H    0.119277
    67  C   -0.236313
    68  H    0.110750
    69  H    0.115439
    70  C   -0.215071
    71  H    0.105731
    72  H    0.104107
    73  C   -0.202775
    74  H    0.103284
    75  H    0.109423
    76  C   -0.220278
    77  H    0.115672
    78  H    0.105008
    79  C   -0.212898
    80  H    0.103400
    81  H    0.115869
    82  C   -0.219181
    83  H    0.104435
    84  H    0.104925
    85  C   -0.201882
    86  H    0.106650
    87  H    0.104915
    88  C   -0.224759
    89  H    0.106864
    90  H    0.113661
    91  C   -0.208557
    92  H    0.105508
    93  H    0.104645
    94  C   -0.231908
    95  H    0.105588
    96  H    0.105283
    97  C   -0.285583
    98  H    0.100380
    99  H    0.103048
   100  H    0.100758
   101  Br   0.028164
   102  Br   0.018727
 Sum of Mulliken charges =  -0.00000
 Mulliken charges with hydrogens summed into heavy atoms:
               1
     1  C   -0.246556
     2  C    0.239643
     3  C    0.083466
     4  C   -0.362305
     5  S    0.384180
     6  O   -0.380284
     8  C   -0.206347
     9  C    0.173704
    10  C    0.110620
    11  C   -0.360877
    12  S    0.371829
    13  O   -0.321754
    15  C    0.216949
    18  C    0.027036
    21  C    0.007859
    24  C   -0.011360
    27  C    0.001652
    30  C   -0.000257
    33  C    0.012031
    36  C   -0.003912
    39  C    0.004485
    42  C    0.001524
    45  C    0.003185
    48  C   -0.009665
    51  C   -0.006268
    54  C    0.011471
    58  C    0.164893
    61  C    0.016568
    64  C    0.035463
    67  C   -0.010124
    70  C   -0.005233
    73  C    0.009932
    76  C    0.000401
    79  C    0.006371
    82  C   -0.009820
    85  C    0.009683
    88  C   -0.004235
    91  C    0.001596
    94  C   -0.021038
    97  C    0.018603
   101  Br   0.028164
   102  Br   0.018727
 Electronic spatial extent (au):  <R**2>=         114369.7611
 Charge=             -0.0000 electrons
 Dipole moment (field-independent basis, Debye):
    X=             -1.2273    Y=             -0.4749    Z=              1.1383  Tot=              1.7399
 Quadrupole moment (field-independent basis, Debye-Ang):
   XX=           -281.0260   YY=           -313.6630   ZZ=           -308.1824
   XY=             -8.0596   XZ=             -1.9227   YZ=              0.1935
 Traceless Quadrupole moment (field-independent basis, Debye-Ang):
   XX=             19.9311   YY=            -12.7059   ZZ=             -7.2253
   XY=             -8.0596   XZ=             -1.9227   YZ=              0.1935
 Octapole moment (field-independent basis, Debye-Ang**2):
  XXX=           -133.5710  YYY=             -8.7757  ZZZ=             21.5824  XYY=              7.2774
  XXY=             32.1645  XXZ=            -42.4646  XZZ=              5.0229  YZZ=              2.4208
  YYZ=             18.4344  XYZ=              9.2136
 Hexadecapole moment (field-independent basis, Debye-Ang**3):
 XXXX=        -151335.2075 YYYY=          -8592.8164 ZZZZ=          -1613.5184 XXXY=           -159.0558
 XXXZ=           -532.4925 YYYX=            -51.8785 YYYZ=             60.8062 ZZZX=              6.6605
 ZZZY=             41.5675 XXYY=         -26193.4351 XXZZ=         -24635.7282 YYZZ=          -1729.0779
 XXYZ=            -36.2339 YYXZ=            -24.0430 ZZXY=              0.0475
 N-N= 5.980224736161D+03 E-N=-2.977833717983D+04  KE= 7.491606876559D+03
 Leave Link  601 at Fri Jan 17 13:07:08 2020, MaxMem=  6710886400 cpu:               2.2 elap:               0.7
 (Enter /apps/gaussian/g16-a03/l602.exe)
 FitSet:  NAtFit=   102 NAtPot=   102 NAtFrz=     0 MDM=   106 TotChg=   0.00000
 UFF atomic radii scaled by 1 / 1.20 used.

 **********************************************************************

            Electrostatic Properties Using The SCF Density

 **********************************************************************

       Atomic Center    1 is at  -0.067376  0.767398 -0.417765
       Atomic Center    2 is at  -1.357816  1.194270 -0.146637
       Atomic Center    3 is at  -1.514343  2.609114 -0.126412
       Atomic Center    4 is at  -0.342996  3.259040 -0.382156
       Atomic Center    5 is at   0.969194  2.168610 -0.651757
       Atomic Center    6 is at  -2.340363  0.273627  0.070352
       Atomic Center    7 is at  -2.447886  3.116823  0.066860
       Atomic Center    8 is at   0.422609 -0.588196 -0.509626
       Atomic Center    9 is at   1.713048 -1.015068 -0.780755
       Atomic Center   10 is at   1.870543 -2.429773 -0.801186
       Atomic Center   11 is at   0.698229 -3.079838 -0.545235
       Atomic Center   12 is at  -0.614031 -1.990407 -0.276632
       Atomic Center   13 is at   2.695387 -0.094434 -0.998721
       Atomic Center   14 is at   2.803049 -2.938620 -0.995249
       Atomic Center   15 is at  -3.668924  0.731292  0.335625
       Atomic Center   16 is at  -3.668476  1.334942  1.219087
       Atomic Center   17 is at  -4.018308  1.311590 -0.492678
       Atomic Center   18 is at  -4.597475 -0.479839  0.541914
       Atomic Center   19 is at  -4.603275 -1.079808 -0.344034
       Atomic Center   20 is at  -4.244149 -1.063896  1.365891
       Atomic Center   21 is at  -6.026202  0.013143  0.837394
       Atomic Center   22 is at  -6.671633 -0.828369  0.979436
       Atomic Center   23 is at  -6.020622  0.612038  1.724069
       Atomic Center   24 is at  -6.534020  0.855311 -0.347711
       Atomic Center   25 is at  -6.262132  1.879570 -0.199824
       Atomic Center   26 is at  -6.093727  0.496787 -1.254630
       Atomic Center   27 is at  -8.066847  0.739319 -0.440378
       Atomic Center   28 is at  -8.503519  1.029308  0.492427
       Atomic Center   29 is at  -8.426752  1.380855 -1.217424
       Atomic Center   30 is at  -8.453198 -0.717370 -0.757220
       Atomic Center   31 is at  -7.800885 -1.103148 -1.512577
       Atomic Center   32 is at  -8.363541 -1.310879  0.128561
       Atomic Center   33 is at  -9.907430 -0.764618 -1.261777
       Atomic Center   34 is at -10.202948 -1.783220 -1.403261
       Atomic Center   35 is at  -9.979616 -0.239876 -2.191474
       Atomic Center   36 is at -10.832441 -0.101075 -0.224634
       Atomic Center   37 is at -10.776457  0.962672 -0.325672
       Atomic Center   38 is at -10.523661 -0.382525  0.760424
       Atomic Center   39 is at -12.282438 -0.563454 -0.459822
       Atomic Center   40 is at -12.565113 -0.351218 -1.469748
       Atomic Center   41 is at -12.354162 -1.616323 -0.283124
       Atomic Center   42 is at -13.222366  0.184052  0.504217
       Atomic Center   43 is at -13.155511  1.236492  0.323105
       Atomic Center   44 is at -12.935634 -0.022996  1.514076
       Atomic Center   45 is at -14.671195 -0.285175  0.275478
       Atomic Center   46 is at -14.739712 -1.336175  0.464168
       Atomic Center   47 is at -14.955282 -0.085234 -0.736558
       Atomic Center   48 is at -15.612538  0.470488  1.231745
       Atomic Center   49 is at -15.545018  1.521391  1.042151
       Atomic Center   50 is at -15.327621  0.271612  2.243759
       Atomic Center   51 is at -17.061126 -0.000129  1.004343
       Atomic Center   52 is at -17.715601  0.527358  1.666400
       Atomic Center   53 is at -17.344893  0.195653 -0.008596
       Atomic Center   54 is at -17.159348 -1.511714  1.281949
       Atomic Center   55 is at -16.867395 -2.054671  0.407386
       Atomic Center   56 is at -16.511266 -1.768092  2.093835
       Atomic Center   57 is at -18.167628 -1.762634  1.537507
       Atomic Center   58 is at   3.537659 -0.912126 -0.182106
       Atomic Center   59 is at   2.996536 -1.226503  0.685796
       Atomic Center   60 is at   3.849023 -1.771177 -0.738867
       Atomic Center   61 is at   4.775400 -0.103856  0.249516
       Atomic Center   62 is at   4.538438  0.474965  1.117684
       Atomic Center   63 is at   5.577993 -0.774275  0.475973
       Atomic Center   64 is at   5.199054  0.836246 -0.894305
       Atomic Center   65 is at   4.716996  1.783921 -0.774165
       Atomic Center   66 is at   4.914172  0.407551 -1.832368
       Atomic Center   67 is at   6.726527  1.029406 -0.860927
       Atomic Center   68 is at   7.009998  1.757647 -1.591824
       Atomic Center   69 is at   7.022377  1.365537  0.110869
       Atomic Center   70 is at   7.420211 -0.309333 -1.174266
       Atomic Center   71 is at   7.372486 -0.945419 -0.315187
       Atomic Center   72 is at   6.926224 -0.783084 -1.996723
       Atomic Center   73 is at   8.893553 -0.050734 -1.540311
       Atomic Center   74 is at   9.396527 -0.985265 -1.676580
       Atomic Center   75 is at   8.941722  0.515737 -2.446782
       Atomic Center   76 is at   9.573661  0.737594 -0.405590
       Atomic Center   77 is at   9.318516  1.773436 -0.488246
       Atomic Center   78 is at   9.239874  0.362342  0.539223
       Atomic Center   79 is at  11.101388  0.575166 -0.511731
       Atomic Center   80 is at  11.425526  0.878466 -1.485303
       Atomic Center   81 is at  11.363024 -0.449984 -0.351998
       Atomic Center   82 is at  11.786039  1.451662  0.553449
       Atomic Center   83 is at  11.534819  2.478169  0.385904
       Atomic Center   84 is at  11.452027  1.156931  1.526316
       Atomic Center   85 is at  13.312983  1.274947  0.459568
       Atomic Center   86 is at  13.645582  1.559365 -0.516845
       Atomic Center   87 is at  13.789195  1.892217  1.192439
       Atomic Center   88 is at  13.675842 -0.199526  0.716208
       Atomic Center   89 is at  13.032811 -0.598636  1.472596
       Atomic Center   90 is at  13.553837 -0.759354 -0.187455
       Atomic Center   91 is at  15.139780 -0.293843  1.184813
       Atomic Center   92 is at  15.246127  0.205421  2.125199
       Atomic Center   93 is at  15.776626  0.169909  0.460754
       Atomic Center   94 is at  15.534073 -1.774182  1.342068
       Atomic Center   95 is at  15.414533 -2.276611  0.404958
       Atomic Center   96 is at  14.906270 -2.234457  2.076173
       Atomic Center   97 is at  17.003982 -1.868945  1.791499
       Atomic Center   98 is at  17.124066 -1.364228  2.727309
       Atomic Center   99 is at  17.277158 -2.897424  1.903330
       Atomic Center  100 is at  17.632021 -1.411025  1.056124
       Atomic Center  101 is at   0.423194 -4.854555  0.075036
       Atomic Center  102 is at   0.103465  4.945517  0.370483
    3815 points will be used for fitting atomic charges
 Fitting point charges to electrostatic potential
 Charges from ESP fit, RMS=   0.00214 RRMS=   0.28865:
 ESP charges:
               1
     1  C   -0.153496
     2  C    0.377846
     3  C   -0.275595
     4  C   -0.102032
     5  S    0.070560
     6  O   -0.408081
     7  H    0.159168
     8  C   -0.092149
     9  C    0.407298
    10  C   -0.306675
    11  C   -0.114759
    12  S    0.029247
    13  O   -0.350251
    14  H    0.180897
    15  C    0.402148
    16  H   -0.014356
    17  H   -0.013481
    18  C   -0.224817
    19  H    0.084372
    20  H    0.068771
    21  C   -0.035073
    22  H    0.027053
    23  H    0.039707
    24  C   -0.137952
    25  H    0.023232
    26  H    0.052737
    27  C    0.075634
    28  H   -0.025117
    29  H    0.007170
    30  C   -0.073840
    31  H    0.036309
    32  H    0.053406
    33  C   -0.189775
    34  H    0.019386
    35  H    0.052167
    36  C    0.309720
    37  H   -0.062492
    38  H   -0.041163
    39  C   -0.117166
    40  H    0.010453
    41  H    0.029623
    42  C   -0.212234
    43  H    0.049757
    44  H    0.026836
    45  C    0.331894
    46  H   -0.057756
    47  H   -0.046341
    48  C   -0.176360
    49  H    0.008211
    50  H    0.043652
    51  C    0.123653
    52  H   -0.010375
    53  H   -0.016298
    54  C   -0.256544
    55  H    0.045415
    56  H    0.072307
    57  H    0.057320
    58  C    0.138978
    59  H    0.032044
    60  H    0.053217
    61  C    0.026338
    62  H    0.032032
    63  H   -0.052441
    64  C   -0.188230
    65  H    0.063156
    66  H    0.065281
    67  C    0.069121
    68  H    0.010420
    69  H   -0.013209
    70  C   -0.000847
    71  H    0.056139
    72  H    0.012600
    73  C   -0.223403
    74  H    0.033238
    75  H    0.066750
    76  C    0.063502
    77  H   -0.013537
    78  H    0.009975
    79  C    0.093244
    80  H   -0.006086
    81  H   -0.029726
    82  C   -0.117223
    83  H    0.013983
    84  H    0.013897
    85  C    0.090951
    86  H   -0.016500
    87  H   -0.036548
    88  C    0.035457
    89  H    0.002481
    90  H   -0.016817
    91  C   -0.084714
    92  H    0.026919
    93  H    0.002609
    94  C    0.274284
    95  H   -0.051040
    96  H   -0.064347
    97  C   -0.313529
    98  H    0.064152
    99  H    0.062749
   100  H    0.067687
   101  Br   0.001699
   102  Br  -0.016474
 Sum of ESP charges =  -0.00000
 ESP charges with hydrogens summed into heavy atoms:
               1
     1  C   -0.153496
     2  C    0.377846
     3  C   -0.116426
     4  C   -0.102032
     5  S    0.070560
     6  O   -0.408081
     8  C   -0.092149
     9  C    0.407298
    10  C   -0.125778
    11  C   -0.114759
    12  S    0.029247
    13  O   -0.350251
    15  C    0.374311
    18  C   -0.071673
    21  C    0.031686
    24  C   -0.061983
    27  C    0.057687
    30  C    0.015875
    33  C   -0.118222
    36  C    0.206065
    39  C   -0.077090
    42  C   -0.135641
    45  C    0.227797
    48  C   -0.124497
    51  C    0.096980
    54  C   -0.081502
    58  C    0.224239
    61  C    0.005928
    64  C   -0.059792
    67  C    0.066331
    70  C    0.067892
    73  C   -0.123416
    76  C    0.059939
    79  C    0.057431
    82  C   -0.089344
    85  C    0.037903
    88  C    0.021121
    91  C   -0.055187
    94  C    0.158898
    97  C   -0.118940
   101  Br   0.001699
   102  Br  -0.016474
 Charge=  -0.00000 Dipole=    -1.2295    -0.4402     1.0147 Tot=     1.6538
 -----------------------------------------------------------------

              Electrostatic Properties (Atomic Units)

 -----------------------------------------------------------------
    Center     Electric         -------- Electric Field --------
               Potential          X             Y             Z
 -----------------------------------------------------------------
    1 Atom    -14.732211
    2 Atom    -14.703062
    3 Atom    -14.761323
    4 Atom    -14.705833
    5 Atom    -59.212636
    6 Atom    -22.333253
    7 Atom     -1.080304
    8 Atom    -14.734349
    9 Atom    -14.705830
   10 Atom    -14.762533
   11 Atom    -14.702362
   12 Atom    -59.214997
   13 Atom    -22.332947
   14 Atom     -1.077660
   15 Atom    -14.717158
   16 Atom     -1.109501
   17 Atom     -1.110488
   18 Atom    -14.776006
   19 Atom     -1.124805
   20 Atom     -1.127141
   21 Atom    -14.779785
   22 Atom     -1.126918
   23 Atom     -1.126253
   24 Atom    -14.784154
   25 Atom     -1.131079
   26 Atom     -1.129378
   27 Atom    -14.787524
   28 Atom     -1.133042
   29 Atom     -1.134530
   30 Atom    -14.789506
   31 Atom     -1.136426
   32 Atom     -1.133736
   33 Atom    -14.791647
   34 Atom     -1.139772
   35 Atom     -1.137214
   36 Atom    -14.792609
   37 Atom     -1.138029
   38 Atom     -1.136952
   39 Atom    -14.793314
   40 Atom     -1.138422
   41 Atom     -1.138528
   42 Atom    -14.793952
   43 Atom     -1.139387
   44 Atom     -1.138804
   45 Atom    -14.794612
   46 Atom     -1.139811
   47 Atom     -1.138698
   48 Atom    -14.794343
   49 Atom     -1.141765
   50 Atom     -1.139379
   51 Atom    -14.792117
   52 Atom     -1.143760
   53 Atom     -1.140507
   54 Atom    -14.800630
   55 Atom     -1.136157
   56 Atom     -1.134198
   57 Atom     -1.136959
   58 Atom    -14.727075
   59 Atom     -1.109817
   60 Atom     -1.109058
   61 Atom    -14.787422
   62 Atom     -1.132792
   63 Atom     -1.125453
   64 Atom    -14.793365
   65 Atom     -1.143959
   66 Atom     -1.141471
   67 Atom    -14.793732
   68 Atom     -1.140391
   69 Atom     -1.139252
   70 Atom    -14.792809
   71 Atom     -1.136316
   72 Atom     -1.139547
   73 Atom    -14.794362
   74 Atom     -1.142370
   75 Atom     -1.139975
   76 Atom    -14.795310
   77 Atom     -1.141343
   78 Atom     -1.139612
   79 Atom    -14.795882
   80 Atom     -1.139925
   81 Atom     -1.141226
   82 Atom    -14.796255
   83 Atom     -1.143888
   84 Atom     -1.141078
   85 Atom    -14.796585
   86 Atom     -1.141428
   87 Atom     -1.144244
   88 Atom    -14.795768
   89 Atom     -1.140016
   90 Atom     -1.141078
   91 Atom    -14.795033
   92 Atom     -1.140110
   93 Atom     -1.140132
   94 Atom    -14.792630
   95 Atom     -1.141303
   96 Atom     -1.141148
   97 Atom    -14.801732
   98 Atom     -1.136913
   99 Atom     -1.138518
  100 Atom     -1.136945
  101 Atom   -175.805680
  102 Atom   -175.810594
 -----------------------------------------------------------------
 Leave Link  602 at Fri Jan 17 13:07:09 2020, MaxMem=  6710886400 cpu:               4.7 elap:               1.2
 (Enter /apps/gaussian/g16-a03/l9999.exe)
 1\1\GINC-CX1-141-15-2\SP\RB3LYP\6-311G(d,p)\C36H60Br2O2S2\NS5018\17-Ja
 n-2020\0\\#p pop=MKUFF b3lyp/6-311g(d,p)\\OBT_1m_14sc_Br_pop.gjf\\0,1\
 C,0,-0.06094376,1.27101978,0.17552584\C,0,1.18505624,1.87801978,0.1755
 2584\C,0,1.14305624,3.30101978,0.17552584\C,0,-0.13494376,3.77701978,0
 .17552584\S,0,-1.30894376,2.51001978,0.17552584\O,0,2.31005624,1.10701
 978,0.17652584\H,0,2.01605624,3.93701978,0.17652584\C,0,-0.36494376,-0
 .14098022,0.17552584\C,0,-1.61094376,-0.74798022,0.17552584\C,0,-1.569
 94376,-2.17098022,0.17552584\C,0,-0.29094376,-2.64698022,0.17552584\S,
 0,0.88305624,-1.38098022,0.17652584\O,0,-2.73594376,0.02301978,0.17552
 584\H,0,-2.44194376,-2.80798022,0.17552584\C,0,3.5874436,1.74967218,0.
 18992066\H,0,3.68612766,2.36528196,-0.67966893\H,0,3.67256842,2.355815
 96,1.06755582\C,0,4.69854363,0.68334735,0.19276622\H,0,4.60401124,0.07
 207335,1.06586857\H,0,4.60922911,0.07284752,-0.68142647\C,0,6.07424535
 ,1.37546388,0.19718107\H,0,6.84623874,0.63457565,0.20047441\H,0,6.1692
 9235,1.98571971,-0.67657741\C,0,6.20205658,2.25559314,1.45441486\H,0,5
 .8263867,3.23508815,1.24379276\H,0,5.63753386,1.82114092,2.25282914\C,
 0,7.68304211,2.35126787,1.86566686\H,0,8.25901355,2.71788414,1.0418043
 7\H,0,7.78044069,3.02054596,2.69481122\C,0,8.19487763,0.95602913,2.269
 31679\H,0,7.46037344,0.46829512,2.87555034\H,0,8.37499366,0.37396497,1
 .38973761\C,0,9.50461746,1.10050052,3.0663799\H,0,9.90370493,0.1300109
 8,3.27561476\H,0,9.3080775,1.61116051,3.98588978\C,0,10.52283972,1.906
 78265,2.23889421\H,0,10.29898176,2.95023127,2.31637064\H,0,10.46781428
 ,1.6053561,1.21370436\C,0,11.94244512,1.64510742,2.77540757\H,0,11.976
 70539,1.87387748,3.82010394\H,0,12.19573583,0.61614952,2.62711918\C,0,
 12.94819148,2.53510447,2.02176342\H,0,12.69875772,3.56422174,2.1753877
 2\H,0,12.909264,2.31090725,0.9762395\C,0,14.36896199,2.26661804,2.5517
 8812\H,0,14.62137681,1.23930997,2.39108687\H,0,14.40586952,2.48336737,
 3.59895456\C,0,15.37332402,3.16473029,1.80596556\H,0,15.12170001,4.192
 06071,1.96776041\H,0,15.3354591,2.94891944,0.75863948\C,0,16.79433326,
 2.89486071,2.33464616\H,0,17.49174763,3.52130921,1.81882112\H,0,16.831
 32454,3.10742961,3.38266625\C,0,17.15834682,1.41743351,2.09736363\H,0,
 16.7699377,0.82158037,2.89673675\H,0,16.73535297,1.09029134,1.17056581
 \H,0,18.22266825,1.31390518,2.05992327\C,0,-3.26751089,-0.88671589,-0.
 791282\H,0,-2.519426,-1.10535434,-1.52440288\H,0,-3.56453079,-1.791772
 4,-0.30388904\C,0,-4.48916394,-0.24915019,-1.47879476\H,0,-4.16033613,
 0.37446229,-2.28370453\H,0,-5.12546912,-1.0195719,-1.86150366\C,0,-5.2
 6827897,0.59971072,-0.45702427\H,0,-4.90906862,1.60728821,-0.48262765\
 H,0,-5.12737779,0.19563534,0.52367443\C,0,-6.76718037,0.57997942,-0.80
 987735\H,0,-7.29520592,1.24689218,-0.16078846\H,0,-6.89875718,0.891569
 11,-1.82501252\C,0,-7.31674687,-0.84806385,-0.63589731\H,0,-7.00321952
 ,-1.45379177,-1.46033305\H,0,-6.94309158,-1.26542299,0.27574576\C,0,-8
 .85534242,-0.80362609,-0.58743067\H,0,-9.23999027,-1.80141597,-0.55053
 382\H,0,-9.16941341,-0.26785282,0.28389385\C,0,-9.38830461,-0.09422981
 ,-1.84612373\H,0,-9.30322373,0.96507718,-1.7215045\H,0,-8.81647235,-0.
 40030984,-2.69713658\C,0,-10.86673032,-0.46891751,-2.05935259\H,0,-11.
 42513822,-0.2333284,-1.17754853\H,0,-10.94358247,-1.51696905,-2.260801
 65\C,0,-11.4308559,0.32573332,-3.25178388\H,0,-11.36590119,1.37352664,
 -3.044878\H,0,-10.8642335,0.0999825,-4.13091732\C,0,-12.90398004,-0.06
 274279,-3.47670961\H,0,-13.46853083,0.15292039,-2.59371935\H,0,-13.299
 09155,0.49736137,-4.29833618\C,0,-12.99590734,-1.56774375,-3.78995309\
 H,0,-12.16047712,-1.85842656,-4.39199947\H,0,-12.98722526,-2.1235305,-
 2.87566336\C,0,-14.30272525,-1.85446078,-4.55259343\H,0,-14.28015685,-
 1.35572517,-5.49898312\H,0,-15.1344886,-1.49825922,-3.98146282\C,0,-14
 .44490692,-3.37164798,-4.77514087\H,0,-14.45357947,-3.87162269,-3.8291
 7572\H,0,-13.62029876,-3.72545684,-5.35801363\C,0,-15.76142574,-3.6600
 2454,-5.52026984\H,0,-15.75386965,-3.15788634,-6.46509794\H,0,-15.8589
 3385,-4.71394586,-5.67724764\H,0,-16.58619745,-3.30860685,-4.93618318\
 Br,0,0.35219693,-4.35347405,-0.35762409\Br,0,-0.64658195,5.40031677,-0
 .66894633\\Version=ES64L-G16RevA.03\State=1-A\HF=-7503.4004445\RMSD=9.
 590e-09\Dipole=0.5865892,-0.1089951,-0.3356121\Quadrupole=12.4183177,-
 7.3206936,-5.0976241,8.9991548,2.5706304,1.522373\PG=C01 [X(C36H60Br2O
 2S2)]\\@


 DEPRESSION IS WAITING FOR YOUR SHIP TO COME IN,
 AND FINDING OUT IT'S THE TITANIC.
 Job cpu time:       0 days  0 hours 51 minutes  2.5 seconds.
 Elapsed time:       0 days  0 hours 12 minutes 46.6 seconds.
 File lengths (MBytes):  RWF=    757 Int=      0 D2E=      0 Chk=     82 Scr=      1
 Normal termination of Gaussian 16 at Fri Jan 17 13:07:09 2020.
