 Entering Gaussian System, Link 0=g16
 Input=O3G_1m_0sc_pop.gjf
 Output=O3G_1m_0sc_pop.log
 Initial command:
 /apps/gaussian/g16-a03/l1.exe "/tmp/pbs.955256.pbs/Gau-38565.inp" -scrdir="/tmp/pbs.955256.pbs/"
 Entering Link 1 = /apps/gaussian/g16-a03/l1.exe PID=     38566.
  
 Copyright (c) 1988,1990,1992,1993,1995,1998,2003,2009,2016,
            Gaussian, Inc.  All Rights Reserved.
  
 This is part of the Gaussian(R) 16 program.  It is based on
 the Gaussian(R) 09 system (copyright 2009, Gaussian, Inc.),
 the Gaussian(R) 03 system (copyright 2003, Gaussian, Inc.),
 the Gaussian(R) 98 system (copyright 1998, Gaussian, Inc.),
 the Gaussian(R) 94 system (copyright 1995, Gaussian, Inc.),
 the Gaussian 92(TM) system (copyright 1992, Gaussian, Inc.),
 the Gaussian 90(TM) system (copyright 1990, Gaussian, Inc.),
 the Gaussian 88(TM) system (copyright 1988, Gaussian, Inc.),
 the Gaussian 86(TM) system (copyright 1986, Carnegie Mellon
 University), and the Gaussian 82(TM) system (copyright 1983,
 Carnegie Mellon University). Gaussian is a federally registered
 trademark of Gaussian, Inc.
  
 This software contains proprietary and confidential information,
 including trade secrets, belonging to Gaussian, Inc.
  
 This software is provided under written license and may be
 used, copied, transmitted, or stored only in accord with that
 written license.
  
 The following legend is applicable only to US Government
 contracts under FAR:
  
                    RESTRICTED RIGHTS LEGEND
  
 Use, reproduction and disclosure by the US Government is
 subject to restrictions as set forth in subparagraphs (a)
 and (c) of the Commercial Computer Software - Restricted
 Rights clause in FAR 52.227-19.
  
 Gaussian, Inc.
 340 Quinnipiac St., Bldg. 40, Wallingford CT 06492
  
  
 ---------------------------------------------------------------
 Warning -- This program may not be used in any manner that
 competes with the business of Gaussian, Inc. or will provide
 assistance to any competitor of Gaussian, Inc.  The licensee
 of this program is prohibited from giving any competitor of
 Gaussian, Inc. access to this program.  By using this program,
 the user acknowledges that Gaussian, Inc. is engaged in the
 business of creating and licensing software in the field of
 computational chemistry and represents and warrants to the
 licensee that it is not a competitor of Gaussian, Inc. and that
 it will not use this program in any manner prohibited above.
 ---------------------------------------------------------------
  

 Cite this work as:
 Gaussian 16, Revision A.03,
 M. J. Frisch, G. W. Trucks, H. B. Schlegel, G. E. Scuseria, 
 M. A. Robb, J. R. Cheeseman, G. Scalmani, V. Barone, 
 G. A. Petersson, H. Nakatsuji, X. Li, M. Caricato, A. V. Marenich, 
 J. Bloino, B. G. Janesko, R. Gomperts, B. Mennucci, H. P. Hratchian, 
 J. V. Ortiz, A. F. Izmaylov, J. L. Sonnenberg, D. Williams-Young, 
 F. Ding, F. Lipparini, F. Egidi, J. Goings, B. Peng, A. Petrone, 
 T. Henderson, D. Ranasinghe, V. G. Zakrzewski, J. Gao, N. Rega, 
 G. Zheng, W. Liang, M. Hada, M. Ehara, K. Toyota, R. Fukuda, 
 J. Hasegawa, M. Ishida, T. Nakajima, Y. Honda, O. Kitao, H. Nakai, 
 T. Vreven, K. Throssell, J. A. Montgomery, Jr., J. E. Peralta, 
 F. Ogliaro, M. J. Bearpark, J. J. Heyd, E. N. Brothers, K. N. Kudin, 
 V. N. Staroverov, T. A. Keith, R. Kobayashi, J. Normand, 
 K. Raghavachari, A. P. Rendell, J. C. Burant, S. S. Iyengar, 
 J. Tomasi, M. Cossi, J. M. Millam, M. Klene, C. Adamo, R. Cammi, 
 J. W. Ochterski, R. L. Martin, K. Morokuma, O. Farkas, 
 J. B. Foresman, and D. J. Fox, Gaussian, Inc., Wallingford CT, 2016.
 
 ******************************************
 Gaussian 16:  ES64L-G16RevA.03 25-Dec-2016
                13-Jan-2020 
 ******************************************
 %mem=50GB
 %nprocshared=8
 Will use up to    8 processors via shared memory.
 ----------------------------
 #p pop=ChelpG b3lyp/6-311g**
 ----------------------------
 1/38=1,172=1/1;
 2/12=2,17=6,18=5,40=1/2;
 3/5=4,6=6,7=101,11=2,25=1,30=1,74=-5/1,2,3;
 4//1;
 5/5=2,38=5/2;
 6/7=2,8=2,9=2,10=2,15=8,20=3,28=1/1,2;
 99/5=1,9=1/99;
 Leave Link    1 at Mon Jan 13 14:40:20 2020, MaxMem=  6710886400 cpu:               0.3 elap:               0.0
 (Enter /apps/gaussian/g16-a03/l101.exe)
 ------------------
 O3G_1m_0sc_pop.pdb
 ------------------
 Symbolic Z-matrix:
 Charge =  0 Multiplicity = 1
 C                    -5.7       0.668    -0.051 
 C                    -4.471     1.308    -0.051 
 C                    -4.55      2.73     -0.051 
 C                    -5.842     3.172    -0.051 
 S                    -6.981     1.874    -0.051 
 O                    -3.325     0.568    -0.051 
 H                    -3.695     3.389    -0.051 
 C                    -5.965    -0.751    -0.051 
 C                    -7.194    -1.391    -0.051 
 C                    -7.114    -2.814    -0.051 
 C                    -5.823    -3.255    -0.051 
 S                    -4.684    -1.957    -0.051 
 O                    -8.34     -0.652    -0.051 
 H                    -7.97     -3.473    -0.051 
 C                    -2.078     1.258    -0.051 
 H                    -1.984     1.889     0.839 
 H                    -1.984     1.889    -0.942 
 C                    -0.987     0.203    -0.051 
 H                    -1.085    -0.436     0.838 
 H                    -1.085    -0.436    -0.94 
 O                     0.249     0.891    -0.051 
 C                     1.374     0.031    -0.051 
 H                     1.375    -0.616     0.838 
 H                     1.375    -0.616    -0.94 
 C                     2.617     0.904    -0.051 
 H                     2.616     1.551     0.838 
 H                     2.616     1.551    -0.94 
 O                     3.739     0.043    -0.051 
 C                     4.977     0.731    -0.051 
 H                     5.071     1.37      0.837 
 H                     5.072     1.37     -0.94 
 C                     6.081    -0.311    -0.051 
 H                     5.985    -0.952    -0.939 
 H                     5.985    -0.952     0.838 
 O                     7.316     0.378    -0.051 
 C                     8.431    -0.489    -0.051 
 H                     8.443    -1.132    -0.943 
 H                     9.325     0.134    -0.051 
 H                     8.443    -1.132     0.842 
 C                    -9.531    -1.287    -0.051 
 H                    -9.014    -1.661     0.839 
 H                    -9.015    -1.661    -0.942 
 C                    -10.736   -0.361    -0.045 
 H                    -10.708    0.282     0.844 
 H                    -10.715    0.284    -0.934 
 O                    -11.884   -1.187    -0.04 
 C                    -13.102   -0.461    -0.035 
 H                    -13.172    0.18      0.855 
 H                    -13.179    0.181    -0.923 
 C                    -14.236   -1.47     -0.031 
 H                    -14.157   -2.114     0.857 
 H                    -14.165   -2.113    -0.921 
 O                    -15.45    -0.743    -0.026 
 C                    -16.601   -1.568    -0.021 
 H                    -16.617   -2.215     0.866 
 H                    -16.626   -2.214    -0.911 
 C                    -17.817   -0.659    -0.016 
 H                    -17.798   -0.011    -0.903 
 H                    -17.79    -0.013     0.874 
 O                    -18.965   -1.485    -0.011 
 C                    -20.171   -0.75     -0.005 
 H                    -20.261   -0.114    -0.897 
 H                    -20.989   -1.472    -0.003 
 H                    -20.253   -0.114     0.888 
 H                    -5.983     4.212    -0.051 
 H                    -5.316    -4.174    -0.051 
 
 ITRead=  0  0  0  0  0  0  0  0  0  0  0  0  0  0  0  0  0  0  0  0
 ITRead=  0  0  0  0  0  0  0  0  0  0  0  0  0  0  0  0  0  0  0  0
 ITRead=  0  0  0  0  0  0  0  0  0  0  0  0  0  0  0  0  0  0  0  0
 ITRead=  0  0  0  0  0  0
 MicOpt= -1 -1 -1 -1 -1 -1 -1 -1 -1 -1 -1 -1 -1 -1 -1 -1 -1 -1 -1 -1
 MicOpt= -1 -1 -1 -1 -1 -1 -1 -1 -1 -1 -1 -1 -1 -1 -1 -1 -1 -1 -1 -1
 MicOpt= -1 -1 -1 -1 -1 -1 -1 -1 -1 -1 -1 -1 -1 -1 -1 -1 -1 -1 -1 -1
 MicOpt= -1 -1 -1 -1 -1 -1
 NAtoms=     66 NQM=       66 NQMF=       0 NMMI=      0 NMMIF=      0
                NMic=       0 NMicF=      0.
                    Isotopes and Nuclear Properties:
 (Nuclear quadrupole moments (NQMom) in fm**2, nuclear magnetic moments (NMagM)
  in nuclear magnetons)

  Atom         1           2           3           4           5           6           7           8           9          10
 IAtWgt=          12          12          12          12          32          16           1          12          12          12
 AtmWgt=  12.0000000  12.0000000  12.0000000  12.0000000  31.9720718  15.9949146   1.0078250  12.0000000  12.0000000  12.0000000
 NucSpn=           0           0           0           0           0           0           1           0           0           0
 AtZEff=  -0.0000000  -0.0000000  -0.0000000  -0.0000000  -0.0000000  -0.0000000  -0.0000000  -0.0000000  -0.0000000  -0.0000000
 NQMom=    0.0000000   0.0000000   0.0000000   0.0000000   0.0000000   0.0000000   0.0000000   0.0000000   0.0000000   0.0000000
 NMagM=    0.0000000   0.0000000   0.0000000   0.0000000   0.0000000   0.0000000   2.7928460   0.0000000   0.0000000   0.0000000
 AtZNuc=   6.0000000   6.0000000   6.0000000   6.0000000  16.0000000   8.0000000   1.0000000   6.0000000   6.0000000   6.0000000

  Atom        11          12          13          14          15          16          17          18          19          20
 IAtWgt=          12          32          16           1          12           1           1          12           1           1
 AtmWgt=  12.0000000  31.9720718  15.9949146   1.0078250  12.0000000   1.0078250   1.0078250  12.0000000   1.0078250   1.0078250
 NucSpn=           0           0           0           1           0           1           1           0           1           1
 AtZEff=  -0.0000000  -0.0000000  -0.0000000  -0.0000000  -0.0000000  -0.0000000  -0.0000000  -0.0000000  -0.0000000  -0.0000000
 NQMom=    0.0000000   0.0000000   0.0000000   0.0000000   0.0000000   0.0000000   0.0000000   0.0000000   0.0000000   0.0000000
 NMagM=    0.0000000   0.0000000   0.0000000   2.7928460   0.0000000   2.7928460   2.7928460   0.0000000   2.7928460   2.7928460
 AtZNuc=   6.0000000  16.0000000   8.0000000   1.0000000   6.0000000   1.0000000   1.0000000   6.0000000   1.0000000   1.0000000

  Atom        21          22          23          24          25          26          27          28          29          30
 IAtWgt=          16          12           1           1          12           1           1          16          12           1
 AtmWgt=  15.9949146  12.0000000   1.0078250   1.0078250  12.0000000   1.0078250   1.0078250  15.9949146  12.0000000   1.0078250
 NucSpn=           0           0           1           1           0           1           1           0           0           1
 AtZEff=  -0.0000000  -0.0000000  -0.0000000  -0.0000000  -0.0000000  -0.0000000  -0.0000000  -0.0000000  -0.0000000  -0.0000000
 NQMom=    0.0000000   0.0000000   0.0000000   0.0000000   0.0000000   0.0000000   0.0000000   0.0000000   0.0000000   0.0000000
 NMagM=    0.0000000   0.0000000   2.7928460   2.7928460   0.0000000   2.7928460   2.7928460   0.0000000   0.0000000   2.7928460
 AtZNuc=   8.0000000   6.0000000   1.0000000   1.0000000   6.0000000   1.0000000   1.0000000   8.0000000   6.0000000   1.0000000

  Atom        31          32          33          34          35          36          37          38          39          40
 IAtWgt=           1          12           1           1          16          12           1           1           1          12
 AtmWgt=   1.0078250  12.0000000   1.0078250   1.0078250  15.9949146  12.0000000   1.0078250   1.0078250   1.0078250  12.0000000
 NucSpn=           1           0           1           1           0           0           1           1           1           0
 AtZEff=  -0.0000000  -0.0000000  -0.0000000  -0.0000000  -0.0000000  -0.0000000  -0.0000000  -0.0000000  -0.0000000  -0.0000000
 NQMom=    0.0000000   0.0000000   0.0000000   0.0000000   0.0000000   0.0000000   0.0000000   0.0000000   0.0000000   0.0000000
 NMagM=    2.7928460   0.0000000   2.7928460   2.7928460   0.0000000   0.0000000   2.7928460   2.7928460   2.7928460   0.0000000
 AtZNuc=   1.0000000   6.0000000   1.0000000   1.0000000   8.0000000   6.0000000   1.0000000   1.0000000   1.0000000   6.0000000

  Atom        41          42          43          44          45          46          47          48          49          50
 IAtWgt=           1           1          12           1           1          16          12           1           1          12
 AtmWgt=   1.0078250   1.0078250  12.0000000   1.0078250   1.0078250  15.9949146  12.0000000   1.0078250   1.0078250  12.0000000
 NucSpn=           1           1           0           1           1           0           0           1           1           0
 AtZEff=  -0.0000000  -0.0000000  -0.0000000  -0.0000000  -0.0000000  -0.0000000  -0.0000000  -0.0000000  -0.0000000  -0.0000000
 NQMom=    0.0000000   0.0000000   0.0000000   0.0000000   0.0000000   0.0000000   0.0000000   0.0000000   0.0000000   0.0000000
 NMagM=    2.7928460   2.7928460   0.0000000   2.7928460   2.7928460   0.0000000   0.0000000   2.7928460   2.7928460   0.0000000
 AtZNuc=   1.0000000   1.0000000   6.0000000   1.0000000   1.0000000   8.0000000   6.0000000   1.0000000   1.0000000   6.0000000

  Atom        51          52          53          54          55          56          57          58          59          60
 IAtWgt=           1           1          16          12           1           1          12           1           1          16
 AtmWgt=   1.0078250   1.0078250  15.9949146  12.0000000   1.0078250   1.0078250  12.0000000   1.0078250   1.0078250  15.9949146
 NucSpn=           1           1           0           0           1           1           0           1           1           0
 AtZEff=  -0.0000000  -0.0000000  -0.0000000  -0.0000000  -0.0000000  -0.0000000  -0.0000000  -0.0000000  -0.0000000  -0.0000000
 NQMom=    0.0000000   0.0000000   0.0000000   0.0000000   0.0000000   0.0000000   0.0000000   0.0000000   0.0000000   0.0000000
 NMagM=    2.7928460   2.7928460   0.0000000   0.0000000   2.7928460   2.7928460   0.0000000   2.7928460   2.7928460   0.0000000
 AtZNuc=   1.0000000   1.0000000   8.0000000   6.0000000   1.0000000   1.0000000   6.0000000   1.0000000   1.0000000   8.0000000

  Atom        61          62          63          64          65          66
 IAtWgt=          12           1           1           1           1           1
 AtmWgt=  12.0000000   1.0078250   1.0078250   1.0078250   1.0078250   1.0078250
 NucSpn=           0           1           1           1           1           1
 AtZEff=  -0.0000000  -0.0000000  -0.0000000  -0.0000000  -0.0000000  -0.0000000
 NQMom=    0.0000000   0.0000000   0.0000000   0.0000000   0.0000000   0.0000000
 NMagM=    0.0000000   2.7928460   2.7928460   2.7928460   2.7928460   2.7928460
 AtZNuc=   6.0000000   1.0000000   1.0000000   1.0000000   1.0000000   1.0000000
 Leave Link  101 at Mon Jan 13 14:40:21 2020, MaxMem=  6710886400 cpu:               2.1 elap:               0.3
 (Enter /apps/gaussian/g16-a03/l202.exe)
 Stoichiometry    C22H34O8S2
 Framework group  C1[X(C22H34O8S2)]
 Deg. of freedom   192
 Full point group                 C1      NOp   1
 Largest Abelian subgroup         C1      NOp   1
 Largest concise Abelian subgroup C1      NOp   1
                         Standard orientation:                         
 ---------------------------------------------------------------------
 Center     Atomic      Atomic             Coordinates (Angstroms)
 Number     Number       Type             X           Y           Z
 ---------------------------------------------------------------------
      1          6           0        0.185017    0.870263   -0.006595
      2          6           0        1.450938    1.433717   -0.004657
      3          6           0        1.459261    2.857885   -0.004109
      4          6           0        0.196788    3.378259   -0.005633
      5         16           0       -1.019641    2.152526   -0.007753
      6          8           0        2.549417    0.624854   -0.003465
      7          1           0        2.353051    3.463231   -0.002662
      8          6           0       -0.166474   -0.529822   -0.007602
      9          6           0       -1.432396   -1.093275   -0.009540
     10          6           0       -1.439781   -2.518503   -0.010088
     11          6           0       -0.178246   -3.037817   -0.008565
     12         16           0        1.038183   -1.812084   -0.006444
     13          8           0       -2.530936   -0.285411   -0.010733
     14          1           0       -2.334570   -3.123787   -0.011536
     15          6           0        3.836370    1.237110   -0.001480
     16          1           0        3.967663    1.860825    0.888935
     17          1           0        3.970090    1.861497   -0.892063
     18          6           0        4.860642    0.117212   -0.000507
     19          1           0        4.722442   -0.514914    0.888067
     20          1           0        4.724865   -0.514243   -0.889931
     21          8           0        6.136493    0.728146    0.001463
     22          6           0        7.206655   -0.199204    0.002572
     23          1           0        7.166778   -0.845383    0.891274
     24          1           0        7.169201   -0.844713   -0.886724
     25          6           0        8.500834    0.595953    0.004635
     26          1           0        8.538288    1.241462    0.893931
     27          1           0        8.540711    1.242133   -0.884067
     28          8           0        9.567940   -0.332211    0.005740
     29          6           0       10.845787    0.278601    0.007712
     30          1           0       10.977573    0.910301    0.896130
     31          1           0       10.980993    0.910910   -0.880866
     32          6           0       11.883832   -0.829119    0.008709
     33          1           0       11.749927   -1.462693   -0.879714
     34          1           0       11.747505   -1.463363    0.897284
     35          8           0       13.158746   -0.217126    0.010677
     36          6           0       14.218497   -1.150849    0.011769
     37          1           0       14.192272   -1.793039   -0.880510
     38          1           0       15.149007   -0.583827    0.013251
     39          1           0       14.189840   -1.793712    0.904489
     40          6           0       -3.758623   -0.846203   -0.012618
     41          1           0       -3.266736   -1.251530    0.877901
     42          1           0       -3.265307   -1.250797   -0.903099
     43          6           0       -4.904596    0.151924   -0.007803
     44          1           0       -4.838442    0.791663    0.881529
     45          1           0       -4.842883    0.794759   -0.896477
     46          8           0       -6.101079   -0.602147   -0.004718
     47          6           0       -7.272288    0.197154   -0.001013
     48          1           0       -7.304074    0.840904    0.889188
     49          1           0       -7.308576    0.843002   -0.888820
     50          6           0       -8.466015   -0.740431    0.001006
     51          1           0       -8.427853   -1.388397    0.888815
     52          1           0       -8.433353   -1.386238   -0.889194
     53          8           0       -9.633169    0.059623    0.004718
     54          6           0      -10.832586   -0.693266    0.007799
     55          1           0      -10.889428   -1.338403    0.894479
     56          1           0      -10.895928   -1.336183   -0.882531
     57          6           0      -11.990579    0.288568    0.011591
     58          1           0      -11.930681    0.934519   -0.875085
     59          1           0      -11.925241    0.931362    0.901923
     60          8           0      -13.187063   -0.465503    0.014676
     61          6           0      -14.345743    0.342045    0.019401
     62          1           0      -14.395369    0.982703   -0.872426
     63          1           0      -15.206468   -0.328451    0.019975
     64          1           0      -14.389817    0.981539    0.912583
     65          1           0        0.119809    4.424946   -0.005343
     66          1           0        0.271462   -3.986170   -0.008309
 ---------------------------------------------------------------------
 Rotational constants (GHZ):           0.5327217           0.0179675           0.0174080
 Leave Link  202 at Mon Jan 13 14:40:22 2020, MaxMem=  6710886400 cpu:               0.0 elap:               0.0
 (Enter /apps/gaussian/g16-a03/l301.exe)
 Standard basis: 6-311G(d,p) (5D, 7F)
 Ernie: Thresh=  0.10000D-02 Tol=  0.10000D-05 Strict=F.
 There are   828 symmetry adapted cartesian basis functions of A   symmetry.
 There are   796 symmetry adapted basis functions of A   symmetry.
   796 basis functions,  1324 primitive gaussians,   828 cartesian basis functions
   131 alpha electrons      131 beta electrons
       nuclear repulsion energy      3223.4437184979 Hartrees.
 IExCor=  402 DFT=T Ex+Corr=B3LYP ExCW=0 ScaHFX=  0.200000
 ScaDFX=  0.800000  0.720000  1.000000  0.810000 ScalE2=  1.000000  1.000000
 IRadAn=      5 IRanWt=     -1 IRanGd=            0 ICorTp=0 IEmpDi=  4
 NAtoms=   66 NActive=   66 NUniq=   66 SFac= 1.00D+00 NAtFMM=   60 NAOKFM=T Big=T
 Integral buffers will be    131072 words long.
 Raffenetti 2 integral format.
 Two-electron integral symmetry is turned on.
 Leave Link  301 at Mon Jan 13 14:40:22 2020, MaxMem=  6710886400 cpu:               0.7 elap:               0.1
 (Enter /apps/gaussian/g16-a03/l302.exe)
 NPDir=0 NMtPBC=     1 NCelOv=     1 NCel=       1 NClECP=     1 NCelD=      1
         NCelK=      1 NCelE2=     1 NClLst=     1 CellRange=     0.0.
 One-electron integrals computed using PRISM.
 One-electron integral symmetry used in STVInt
 NBasis=   796 RedAO= T EigKep=  2.90D-04  NBF=   796
 NBsUse=   796 1.00D-06 EigRej= -1.00D+00 NBFU=   796
 Precomputing XC quadrature grid using
 IXCGrd= 4 IRadAn=           5 IRanWt=          -1 IRanGd=           0 AccXCQ= 0.00D+00.
 Generated NRdTot=       0 NPtTot=           0 NUsed=           0 NTot=          32
 NSgBfM=   581   573   573   573   581 MxSgAt=    66 MxSgA2=    66.
 Leave Link  302 at Mon Jan 13 14:40:26 2020, MaxMem=  6710886400 cpu:              24.2 elap:               3.1
 (Enter /apps/gaussian/g16-a03/l303.exe)
 DipDrv:  MaxL=1.
 Leave Link  303 at Mon Jan 13 14:40:26 2020, MaxMem=  6710886400 cpu:               1.5 elap:               0.2
 (Enter /apps/gaussian/g16-a03/l401.exe)
 ExpMin= 7.71D-02 ExpMax= 9.34D+04 ExpMxC= 3.17D+03 IAcc=3 IRadAn=         5 AccDes= 0.00D+00
 Harris functional with IExCor=  402 and IRadAn=       5 diagonalized for initial guess.
 HarFok:  IExCor=  402 AccDes= 0.00D+00 IRadAn=         5 IDoV= 1 UseB2=F ITyADJ=14
 ICtDFT=  3500011 ScaDFX=  1.000000  1.000000  1.000000  1.000000
 FoFCou: FMM=F IPFlag=           0 FMFlag=      100000 FMFlg1=        2001
         NFxFlg=           0 DoJE=T BraDBF=F KetDBF=T FulRan=T
         wScrn=  0.000000 ICntrl=       500 IOpCl=  0 I1Cent=   200000004 NGrid=           0
         NMat0=    1 NMatS0=      1 NMatT0=    0 NMatD0=    1 NMtDS0=    0 NMtDT0=    0
 Petite list used in FoFCou.
 Harris En= -2257.09334090244    
 JPrj=0 DoOrth=F DoCkMO=F.
 Leave Link  401 at Mon Jan 13 14:40:39 2020, MaxMem=  6710886400 cpu:              99.1 elap:              12.4
 (Enter /apps/gaussian/g16-a03/l502.exe)
 Integral symmetry usage will be decided dynamically.
 Closed shell SCF:
 Using DIIS extrapolation, IDIIS=  1040.
 NGot=  6710886400 LenX=  6709500316 LenY=  6708813904
 Requested convergence on RMS density matrix=1.00D-08 within 128 cycles.
 Requested convergence on MAX density matrix=1.00D-06.
 Requested convergence on             energy=1.00D-06.
 No special actions if energy rises.
 Fock matrices will be formed incrementally for  20 cycles.
 Integral accuracy reduced to 1.0D-05 until final iterations.

 Cycle   1  Pass 0  IDiag  1:
 FoFJK:  IHMeth= 1 ICntrl=       0 DoSepK=F KAlg= 0 I1Cent=           0 FoldK=F
 IRaf= 490000000 NMat=       1 IRICut=       1 DoRegI=T DoRafI=F ISym2E= 0 IDoP0=0 IntGTp=1.
 FoFCou: FMM=T IPFlag=           0 FMFlag=      100000 FMFlg1=        2001
         NFxFlg=           0 DoJE=F BraDBF=F KetDBF=F FulRan=T
         wScrn=  0.000000 ICntrl=         0 IOpCl=  0 I1Cent=           0 NGrid=           0
         NMat0=    1 NMatS0=      1 NMatT0=    0 NMatD0=    1 NMtDS0=    0 NMtDT0=    0
 Symmetry not used in FoFCou.
 FMM levels:  10  Number of levels for PrismC:   9
 E= -2256.31952736920    
 DIIS: error= 3.11D-02 at cycle   1 NSaved=   1.
 NSaved= 1 IEnMin= 1 EnMin= -2256.31952736920     IErMin= 1 ErrMin= 3.11D-02
 ErrMax= 3.11D-02  0.00D+00 EMaxC= 1.00D-01 BMatC= 9.52D-01 BMatP= 9.52D-01
 IDIUse=3 WtCom= 6.89D-01 WtEn= 3.11D-01
 Coeff-Com:  0.100D+01
 Coeff-En:   0.100D+01
 Coeff:      0.100D+01
 Gap=     0.078 Goal=   None    Shift=    0.000
 GapD=    0.078 DampG=0.500 DampE=0.500 DampFc=0.2500 IDamp=-1.
 Damping current iteration by 2.50D-01
 RMSDP=2.41D-03 MaxDP=1.42D-01              OVMax= 2.39D-01

 Cycle   2  Pass 0  IDiag  1:
 RMSU=  6.00D-04    CP:  9.95D-01
 E= -2256.61937690152     Delta-E=       -0.299849532319 Rises=F Damp=T
 DIIS: error= 1.48D-02 at cycle   2 NSaved=   2.
 NSaved= 2 IEnMin= 2 EnMin= -2256.61937690152     IErMin= 2 ErrMin= 1.48D-02
 ErrMax= 1.48D-02  0.00D+00 EMaxC= 1.00D-01 BMatC= 2.43D-01 BMatP= 9.52D-01
 IDIUse=3 WtCom= 8.52D-01 WtEn= 1.48D-01
 Coeff-Com: -0.828D+00 0.183D+01
 Coeff-En:   0.000D+00 0.100D+01
 Coeff:     -0.705D+00 0.171D+01
 Gap=     0.210 Goal=   None    Shift=    0.000
 RMSDP=5.76D-04 MaxDP=3.33D-02 DE=-3.00D-01 OVMax= 2.42D-01

 Cycle   3  Pass 0  IDiag  1:
 RMSU=  5.32D-04    CP:  9.92D-01  1.37D+00
 E= -2257.11266657824     Delta-E=       -0.493289676723 Rises=F Damp=F
 DIIS: error= 6.22D-03 at cycle   3 NSaved=   3.
 NSaved= 3 IEnMin= 3 EnMin= -2257.11266657824     IErMin= 3 ErrMin= 6.22D-03
 ErrMax= 6.22D-03  0.00D+00 EMaxC= 1.00D-01 BMatC= 2.17D-02 BMatP= 2.43D-01
 IDIUse=3 WtCom= 9.38D-01 WtEn= 6.22D-02
 Coeff-Com: -0.311D+00 0.647D+00 0.663D+00
 Coeff-En:   0.000D+00 0.000D+00 0.100D+01
 Coeff:     -0.291D+00 0.607D+00 0.684D+00
 Gap=     0.140 Goal=   None    Shift=    0.000
 RMSDP=2.97D-04 MaxDP=3.08D-02 DE=-4.93D-01 OVMax= 6.66D-02

 Cycle   4  Pass 0  IDiag  1:
 RMSU=  1.88D-04    CP:  9.93D-01  1.50D+00  5.92D-01
 E= -2257.12311808962     Delta-E=       -0.010451511374 Rises=F Damp=F
 DIIS: error= 5.27D-03 at cycle   4 NSaved=   4.
 NSaved= 4 IEnMin= 4 EnMin= -2257.12311808962     IErMin= 4 ErrMin= 5.27D-03
 ErrMax= 5.27D-03  0.00D+00 EMaxC= 1.00D-01 BMatC= 1.12D-02 BMatP= 2.17D-02
 IDIUse=3 WtCom= 9.47D-01 WtEn= 5.27D-02
 Coeff-Com: -0.787D-01 0.159D+00 0.419D+00 0.501D+00
 Coeff-En:   0.000D+00 0.000D+00 0.353D+00 0.647D+00
 Coeff:     -0.746D-01 0.150D+00 0.416D+00 0.509D+00
 Gap=     0.139 Goal=   None    Shift=    0.000
 RMSDP=1.35D-04 MaxDP=1.03D-02 DE=-1.05D-02 OVMax= 3.37D-02

 Cycle   5  Pass 0  IDiag  1:
 RMSU=  8.45D-05    CP:  9.92D-01  1.48D+00  7.05D-01  5.47D-01
 E= -2257.13289760582     Delta-E=       -0.009779516200 Rises=F Damp=F
 DIIS: error= 2.05D-03 at cycle   5 NSaved=   5.
 NSaved= 5 IEnMin= 5 EnMin= -2257.13289760582     IErMin= 5 ErrMin= 2.05D-03
 ErrMax= 2.05D-03  0.00D+00 EMaxC= 1.00D-01 BMatC= 9.38D-04 BMatP= 1.12D-02
 IDIUse=3 WtCom= 9.79D-01 WtEn= 2.05D-02
 Coeff-Com: -0.206D-01 0.427D-01 0.203D+00 0.302D+00 0.472D+00
 Coeff-En:   0.000D+00 0.000D+00 0.000D+00 0.000D+00 0.100D+01
 Coeff:     -0.202D-01 0.418D-01 0.199D+00 0.296D+00 0.483D+00
 Gap=     0.141 Goal=   None    Shift=    0.000
 RMSDP=5.18D-05 MaxDP=3.91D-03 DE=-9.78D-03 OVMax= 1.51D-02

 Cycle   6  Pass 0  IDiag  1:
 RMSU=  2.55D-05    CP:  9.92D-01  1.47D+00  7.16D-01  6.40D-01  5.16D-01
 E= -2257.13364957991     Delta-E=       -0.000751974096 Rises=F Damp=F
 DIIS: error= 1.30D-03 at cycle   6 NSaved=   6.
 NSaved= 6 IEnMin= 6 EnMin= -2257.13364957991     IErMin= 6 ErrMin= 1.30D-03
 ErrMax= 1.30D-03  0.00D+00 EMaxC= 1.00D-01 BMatC= 1.79D-04 BMatP= 9.38D-04
 IDIUse=3 WtCom= 9.87D-01 WtEn= 1.30D-02
 Coeff-Com:  0.200D-02-0.237D-02 0.655D-01 0.115D+00 0.324D+00 0.496D+00
 Coeff-En:   0.000D+00 0.000D+00 0.000D+00 0.000D+00 0.190D+00 0.810D+00
 Coeff:      0.197D-02-0.234D-02 0.647D-01 0.113D+00 0.322D+00 0.500D+00
 Gap=     0.141 Goal=   None    Shift=    0.000
 RMSDP=1.97D-05 MaxDP=1.30D-03 DE=-7.52D-04 OVMax= 6.03D-03

 Cycle   7  Pass 0  IDiag  1:
 RMSU=  8.21D-06    CP:  9.92D-01  1.47D+00  7.22D-01  6.12D-01  6.31D-01
                    CP:  4.65D-01
 E= -2257.13381786578     Delta-E=       -0.000168285871 Rises=F Damp=F
 DIIS: error= 4.01D-04 at cycle   7 NSaved=   7.
 NSaved= 7 IEnMin= 7 EnMin= -2257.13381786578     IErMin= 7 ErrMin= 4.01D-04
 ErrMax= 4.01D-04  0.00D+00 EMaxC= 1.00D-01 BMatC= 1.69D-05 BMatP= 1.79D-04
 IDIUse=3 WtCom= 9.96D-01 WtEn= 4.01D-03
 Coeff-Com:  0.308D-02-0.506D-02 0.237D-01 0.441D-01 0.156D+00 0.313D+00
 Coeff-Com:  0.465D+00
 Coeff-En:   0.000D+00 0.000D+00 0.000D+00 0.000D+00 0.000D+00 0.524D-01
 Coeff-En:   0.948D+00
 Coeff:      0.307D-02-0.504D-02 0.236D-01 0.440D-01 0.155D+00 0.312D+00
 Coeff:      0.467D+00
 Gap=     0.141 Goal=   None    Shift=    0.000
 RMSDP=5.55D-06 MaxDP=4.22D-04 DE=-1.68D-04 OVMax= 1.67D-03

 Initial convergence to 1.0D-05 achieved.  Increase integral accuracy.
 Cycle   8  Pass 1  IDiag  1:
 E= -2257.13379557370     Delta-E=        0.000022292080 Rises=F Damp=F
 DIIS: error= 6.28D-05 at cycle   1 NSaved=   1.
 NSaved= 1 IEnMin= 1 EnMin= -2257.13379557370     IErMin= 1 ErrMin= 6.28D-05
 ErrMax= 6.28D-05  0.00D+00 EMaxC= 1.00D-01 BMatC= 1.62D-06 BMatP= 1.62D-06
 IDIUse=1 WtCom= 1.00D+00 WtEn= 0.00D+00
 Coeff-Com:  0.100D+01
 Coeff:      0.100D+01
 Gap=     0.141 Goal=   None    Shift=    0.000
 RMSDP=5.55D-06 MaxDP=4.22D-04 DE= 2.23D-05 OVMax= 5.97D-04

 Cycle   9  Pass 1  IDiag  1:
 RMSU=  1.55D-05    CP:  1.00D+00
 E= -2257.13379507822     Delta-E=        0.000000495483 Rises=F Damp=F
 DIIS: error= 1.36D-04 at cycle   2 NSaved=   2.
 NSaved= 2 IEnMin= 1 EnMin= -2257.13379557370     IErMin= 1 ErrMin= 6.28D-05
 ErrMax= 1.36D-04  0.00D+00 EMaxC= 1.00D-01 BMatC= 2.17D-06 BMatP= 1.62D-06
 IDIUse=3 WtCom= 4.62D-01 WtEn= 5.38D-01
 Coeff-Com:  0.546D+00 0.454D+00
 Coeff-En:   0.577D+00 0.423D+00
 Coeff:      0.563D+00 0.437D+00
 Gap=     0.141 Goal=   None    Shift=    0.000
 RMSDP=2.24D-06 MaxDP=1.73D-04 DE= 4.95D-07 OVMax= 6.75D-04

 Cycle  10  Pass 1  IDiag  1:
 RMSU=  2.22D-06    CP:  1.00D+00  9.80D-01
 E= -2257.13379691237     Delta-E=       -0.000001834154 Rises=F Damp=F
 DIIS: error= 6.10D-05 at cycle   3 NSaved=   3.
 NSaved= 3 IEnMin= 3 EnMin= -2257.13379691237     IErMin= 3 ErrMin= 6.10D-05
 ErrMax= 6.10D-05  0.00D+00 EMaxC= 1.00D-01 BMatC= 2.93D-07 BMatP= 1.62D-06
 IDIUse=1 WtCom= 1.00D+00 WtEn= 0.00D+00
 Coeff-Com:  0.749D-01 0.265D+00 0.660D+00
 Coeff:      0.749D-01 0.265D+00 0.660D+00
 Gap=     0.141 Goal=   None    Shift=    0.000
 RMSDP=9.75D-07 MaxDP=6.06D-05 DE=-1.83D-06 OVMax= 2.73D-04

 Cycle  11  Pass 1  IDiag  1:
 RMSU=  5.35D-07    CP:  1.00D+00  9.95D-01  6.49D-01
 E= -2257.13379712349     Delta-E=       -0.000000211121 Rises=F Damp=F
 DIIS: error= 2.27D-05 at cycle   4 NSaved=   4.
 NSaved= 4 IEnMin= 4 EnMin= -2257.13379712349     IErMin= 4 ErrMin= 2.27D-05
 ErrMax= 2.27D-05  0.00D+00 EMaxC= 1.00D-01 BMatC= 9.59D-08 BMatP= 2.93D-07
 IDIUse=1 WtCom= 1.00D+00 WtEn= 0.00D+00
 Coeff-Com:  0.145D-02 0.144D+00 0.459D+00 0.396D+00
 Coeff:      0.145D-02 0.144D+00 0.459D+00 0.396D+00
 Gap=     0.141 Goal=   None    Shift=    0.000
 RMSDP=3.94D-07 MaxDP=2.84D-05 DE=-2.11D-07 OVMax= 1.08D-04

 Cycle  12  Pass 1  IDiag  1:
 RMSU=  1.33D-07    CP:  1.00D+00  9.94D-01  7.31D-01  3.98D-01
 E= -2257.13379721632     Delta-E=       -0.000000092828 Rises=F Damp=F
 DIIS: error= 2.12D-06 at cycle   5 NSaved=   5.
 NSaved= 5 IEnMin= 5 EnMin= -2257.13379721632     IErMin= 5 ErrMin= 2.12D-06
 ErrMax= 2.12D-06  0.00D+00 EMaxC= 1.00D-01 BMatC= 2.13D-09 BMatP= 9.59D-08
 IDIUse=1 WtCom= 1.00D+00 WtEn= 0.00D+00
 Coeff-Com: -0.235D-02 0.709D-01 0.232D+00 0.225D+00 0.474D+00
 Coeff:     -0.235D-02 0.709D-01 0.232D+00 0.225D+00 0.474D+00
 Gap=     0.141 Goal=   None    Shift=    0.000
 RMSDP=5.88D-08 MaxDP=5.40D-06 DE=-9.28D-08 OVMax= 1.44D-05

 Cycle  13  Pass 1  IDiag  1:
 RMSU=  4.04D-08    CP:  1.00D+00  9.95D-01  7.29D-01  4.39D-01  7.33D-01
 E= -2257.13379721826     Delta-E=       -0.000000001936 Rises=F Damp=F
 DIIS: error= 5.02D-07 at cycle   6 NSaved=   6.
 NSaved= 6 IEnMin= 6 EnMin= -2257.13379721826     IErMin= 6 ErrMin= 5.02D-07
 ErrMax= 5.02D-07  0.00D+00 EMaxC= 1.00D-01 BMatC= 1.59D-10 BMatP= 2.13D-09
 IDIUse=1 WtCom= 1.00D+00 WtEn= 0.00D+00
 Coeff-Com: -0.144D-02 0.286D-01 0.929D-01 0.962D-01 0.268D+00 0.516D+00
 Coeff:     -0.144D-02 0.286D-01 0.929D-01 0.962D-01 0.268D+00 0.516D+00
 Gap=     0.141 Goal=   None    Shift=    0.000
 RMSDP=1.88D-08 MaxDP=1.91D-06 DE=-1.94D-09 OVMax= 5.64D-06

 Cycle  14  Pass 1  IDiag  1:
 RMSU=  1.48D-08    CP:  1.00D+00  9.95D-01  7.27D-01  4.32D-01  7.23D-01
                    CP:  7.42D-01
 E= -2257.13379721837     Delta-E=       -0.000000000111 Rises=F Damp=F
 DIIS: error= 1.70D-07 at cycle   7 NSaved=   7.
 NSaved= 7 IEnMin= 7 EnMin= -2257.13379721837     IErMin= 7 ErrMin= 1.70D-07
 ErrMax= 1.70D-07  0.00D+00 EMaxC= 1.00D-01 BMatC= 1.23D-11 BMatP= 1.59D-10
 IDIUse=1 WtCom= 1.00D+00 WtEn= 0.00D+00
 Coeff-Com: -0.384D-03 0.526D-02 0.162D-01 0.194D-01 0.674D-01 0.252D+00
 Coeff-Com:  0.640D+00
 Coeff:     -0.384D-03 0.526D-02 0.162D-01 0.194D-01 0.674D-01 0.252D+00
 Coeff:      0.640D+00
 Gap=     0.141 Goal=   None    Shift=    0.000
 RMSDP=6.48D-09 MaxDP=5.94D-07 DE=-1.11D-10 OVMax= 2.11D-06

 SCF Done:  E(RB3LYP) =  -2257.13379722     A.U. after   14 cycles
            NFock= 14  Conv=0.65D-08     -V/T= 2.0026
 KE= 2.251301657133D+03 PE=-1.175574472944D+04 EE= 4.023865556590D+03
 Leave Link  502 at Mon Jan 13 14:45:02 2020, MaxMem=  6710886400 cpu:            2086.8 elap:             261.9
 (Enter /apps/gaussian/g16-a03/l601.exe)
 Copying SCF densities to generalized density rwf, IOpCl= 0 IROHF=0.

 **********************************************************************

            Population analysis using the SCF density.

 **********************************************************************

 Orbital symmetries:
       Occupied  (A) (A) (A) (A) (A) (A) (A) (A) (A) (A) (A) (A)
                 (A) (A) (A) (A) (A) (A) (A) (A) (A) (A) (A) (A)
                 (A) (A) (A) (A) (A) (A) (A) (A) (A) (A) (A) (A)
                 (A) (A) (A) (A) (A) (A) (A) (A) (A) (A) (A) (A)
                 (A) (A) (A) (A) (A) (A) (A) (A) (A) (A) (A) (A)
                 (A) (A) (A) (A) (A) (A) (A) (A) (A) (A) (A) (A)
                 (A) (A) (A) (A) (A) (A) (A) (A) (A) (A) (A) (A)
                 (A) (A) (A) (A) (A) (A) (A) (A) (A) (A) (A) (A)
                 (A) (A) (A) (A) (A) (A) (A) (A) (A) (A) (A) (A)
                 (A) (A) (A) (A) (A) (A) (A) (A) (A) (A) (A) (A)
                 (A) (A) (A) (A) (A) (A) (A) (A) (A) (A) (A)
       Virtual   (A) (A) (A) (A) (A) (A) (A) (A) (A) (A) (A) (A)
                 (A) (A) (A) (A) (A) (A) (A) (A) (A) (A) (A) (A)
                 (A) (A) (A) (A) (A) (A) (A) (A) (A) (A) (A) (A)
                 (A) (A) (A) (A) (A) (A) (A) (A) (A) (A) (A) (A)
                 (A) (A) (A) (A) (A) (A) (A) (A) (A) (A) (A) (A)
                 (A) (A) (A) (A) (A) (A) (A) (A) (A) (A) (A) (A)
                 (A) (A) (A) (A) (A) (A) (A) (A) (A) (A) (A) (A)
                 (A) (A) (A) (A) (A) (A) (A) (A) (A) (A) (A) (A)
                 (A) (A) (A) (A) (A) (A) (A) (A) (A) (A) (A) (A)
                 (A) (A) (A) (A) (A) (A) (A) (A) (A) (A) (A) (A)
                 (A) (A) (A) (A) (A) (A) (A) (A) (A) (A) (A) (A)
                 (A) (A) (A) (A) (A) (A) (A) (A) (A) (A) (A) (A)
                 (A) (A) (A) (A) (A) (A) (A) (A) (A) (A) (A) (A)
                 (A) (A) (A) (A) (A) (A) (A) (A) (A) (A) (A) (A)
                 (A) (A) (A) (A) (A) (A) (A) (A) (A) (A) (A) (A)
                 (A) (A) (A) (A) (A) (A) (A) (A) (A) (A) (A) (A)
                 (A) (A) (A) (A) (A) (A) (A) (A) (A) (A) (A) (A)
                 (A) (A) (A) (A) (A) (A) (A) (A) (A) (A) (A) (A)
                 (A) (A) (A) (A) (A) (A) (A) (A) (A) (A) (A) (A)
                 (A) (A) (A) (A) (A) (A) (A) (A) (A) (A) (A) (A)
                 (A) (A) (A) (A) (A) (A) (A) (A) (A) (A) (A) (A)
                 (A) (A) (A) (A) (A) (A) (A) (A) (A) (A) (A) (A)
                 (A) (A) (A) (A) (A) (A) (A) (A) (A) (A) (A) (A)
                 (A) (A) (A) (A) (A) (A) (A) (A) (A) (A) (A) (A)
                 (A) (A) (A) (A) (A) (A) (A) (A) (A) (A) (A) (A)
                 (A) (A) (A) (A) (A) (A) (A) (A) (A) (A) (A) (A)
                 (A) (A) (A) (A) (A) (A) (A) (A) (A) (A) (A) (A)
                 (A) (A) (A) (A) (A) (A) (A) (A) (A) (A) (A) (A)
                 (A) (A) (A) (A) (A) (A) (A) (A) (A) (A) (A) (A)
                 (A) (A) (A) (A) (A) (A) (A) (A) (A) (A) (A) (A)
                 (A) (A) (A) (A) (A) (A) (A) (A) (A) (A) (A) (A)
                 (A) (A) (A) (A) (A) (A) (A) (A) (A) (A) (A) (A)
                 (A) (A) (A) (A) (A) (A) (A) (A) (A) (A) (A) (A)
                 (A) (A) (A) (A) (A) (A) (A) (A) (A) (A) (A) (A)
                 (A) (A) (A) (A) (A) (A) (A) (A) (A) (A) (A) (A)
                 (A) (A) (A) (A) (A) (A) (A) (A) (A) (A) (A) (A)
                 (A) (A) (A) (A) (A) (A) (A) (A) (A) (A) (A) (A)
                 (A) (A) (A) (A) (A) (A) (A) (A) (A) (A) (A) (A)
                 (A) (A) (A) (A) (A) (A) (A) (A) (A) (A) (A) (A)
                 (A) (A) (A) (A) (A) (A) (A) (A) (A) (A) (A) (A)
                 (A) (A) (A) (A) (A) (A) (A) (A) (A) (A) (A) (A)
                 (A) (A) (A) (A) (A) (A) (A) (A) (A) (A) (A) (A)
                 (A) (A) (A) (A) (A) (A) (A) (A) (A) (A) (A) (A)
                 (A) (A) (A) (A) (A) (A) (A) (A) (A) (A) (A) (A)
                 (A) (A) (A) (A) (A) (A) (A) (A) (A) (A) (A) (A)
                 (A) (A) (A) (A) (A) (A) (A) (A) (A) (A) (A) (A)
                 (A) (A) (A) (A) (A) (A) (A) (A) (A) (A) (A) (A)
                 (A) (A) (A) (A) (A) (A) (A) (A) (A) (A) (A) (A)
                 (A) (A) (A) (A) (A) (A) (A) (A) (A) (A) (A) (A)
                 (A) (A) (A) (A) (A) (A) (A) (A) (A) (A) (A) (A)
                 (A) (A) (A) (A) (A) (A) (A) (A) (A) (A) (A) (A)
                 (A) (A) (A) (A) (A) (A) (A) (A) (A) (A) (A) (A)
                 (A) (A) (A) (A) (A) (A) (A) (A) (A) (A) (A) (A)
                 (A) (A) (A) (A) (A) (A) (A) (A) (A) (A) (A) (A)
                 (A) (A) (A) (A) (A) (A) (A) (A) (A) (A) (A) (A)
                 (A) (A) (A) (A) (A)
 The electronic state is 1-A.
 Alpha  occ. eigenvalues --  -88.87465 -88.87181 -19.15744 -19.14528 -19.13204
 Alpha  occ. eigenvalues --  -19.12932 -19.12744 -19.12578 -19.12308 -19.12203
 Alpha  occ. eigenvalues --  -10.23609 -10.23348 -10.23300 -10.23281 -10.22638
 Alpha  occ. eigenvalues --  -10.22251 -10.22100 -10.22061 -10.21911 -10.21861
 Alpha  occ. eigenvalues --  -10.21732 -10.21717 -10.21603 -10.21547 -10.21462
 Alpha  occ. eigenvalues --  -10.21364 -10.20739 -10.20469 -10.19502 -10.19146
 Alpha  occ. eigenvalues --  -10.18108 -10.17371  -7.96004  -7.95788  -5.92324
 Alpha  occ. eigenvalues --   -5.92089  -5.91935  -5.91699  -5.91566  -5.91379
 Alpha  occ. eigenvalues --   -1.12128  -1.07576  -1.05213  -1.05012  -1.04465
 Alpha  occ. eigenvalues --   -1.04292  -1.03660  -1.03521  -0.89311  -0.87386
 Alpha  occ. eigenvalues --   -0.79841  -0.79555  -0.77867  -0.77456  -0.76268
 Alpha  occ. eigenvalues --   -0.74237  -0.73557  -0.72119  -0.70817  -0.69558
 Alpha  occ. eigenvalues --   -0.67107  -0.66759  -0.64636  -0.63268  -0.61586
 Alpha  occ. eigenvalues --   -0.61377  -0.61100  -0.61000  -0.60245  -0.57634
 Alpha  occ. eigenvalues --   -0.55915  -0.54404  -0.54376  -0.53913  -0.51729
 Alpha  occ. eigenvalues --   -0.51729  -0.51645  -0.50918  -0.50405  -0.49649
 Alpha  occ. eigenvalues --   -0.48952  -0.48859  -0.48326  -0.48312  -0.48097
 Alpha  occ. eigenvalues --   -0.47638  -0.46716  -0.46134  -0.45771  -0.45351
 Alpha  occ. eigenvalues --   -0.45182  -0.45086  -0.44127  -0.43807  -0.43196
 Alpha  occ. eigenvalues --   -0.43099  -0.42753  -0.42294  -0.40963  -0.40382
 Alpha  occ. eigenvalues --   -0.40201  -0.39291  -0.38565  -0.37947  -0.37197
 Alpha  occ. eigenvalues --   -0.36843  -0.36639  -0.36108  -0.36036  -0.35945
 Alpha  occ. eigenvalues --   -0.34620  -0.33927  -0.33658  -0.32955  -0.32810
 Alpha  occ. eigenvalues --   -0.32790  -0.32755  -0.32466  -0.32347  -0.29705
 Alpha  occ. eigenvalues --   -0.29438  -0.27413  -0.27397  -0.27062  -0.26813
 Alpha  occ. eigenvalues --   -0.26613  -0.26193  -0.26058  -0.23911  -0.23382
 Alpha  occ. eigenvalues --   -0.18334
 Alpha virt. eigenvalues --   -0.04243   0.00834   0.01576   0.02372   0.04008
 Alpha virt. eigenvalues --    0.04265   0.04411   0.04667   0.04836   0.05041
 Alpha virt. eigenvalues --    0.05169   0.05448   0.06362   0.06652   0.06935
 Alpha virt. eigenvalues --    0.06961   0.07303   0.07840   0.08319   0.08443
 Alpha virt. eigenvalues --    0.08581   0.08612   0.08858   0.08992   0.09157
 Alpha virt. eigenvalues --    0.10015   0.10077   0.10651   0.10885   0.10900
 Alpha virt. eigenvalues --    0.10937   0.10963   0.11469   0.12433   0.12643
 Alpha virt. eigenvalues --    0.13048   0.13100   0.13186   0.13204   0.14242
 Alpha virt. eigenvalues --    0.14587   0.14762   0.15152   0.15576   0.16103
 Alpha virt. eigenvalues --    0.16242   0.16334   0.16790   0.17793   0.18874
 Alpha virt. eigenvalues --    0.18918   0.19265   0.19599   0.20382   0.20475
 Alpha virt. eigenvalues --    0.20819   0.20989   0.21008   0.21625   0.21972
 Alpha virt. eigenvalues --    0.22564   0.22907   0.23643   0.24215   0.24721
 Alpha virt. eigenvalues --    0.24900   0.25913   0.27121   0.27269   0.28023
 Alpha virt. eigenvalues --    0.29223   0.29388   0.29632   0.30763   0.30898
 Alpha virt. eigenvalues --    0.31645   0.32136   0.32717   0.32791   0.33183
 Alpha virt. eigenvalues --    0.33974   0.34202   0.34293   0.34712   0.34899
 Alpha virt. eigenvalues --    0.35974   0.36343   0.36794   0.37982   0.38906
 Alpha virt. eigenvalues --    0.39630   0.40024   0.40425   0.40781   0.41563
 Alpha virt. eigenvalues --    0.42396   0.42609   0.42956   0.43000   0.43169
 Alpha virt. eigenvalues --    0.43416   0.44194   0.44224   0.44542   0.44756
 Alpha virt. eigenvalues --    0.44904   0.45021   0.45115   0.46091   0.46162
 Alpha virt. eigenvalues --    0.47074   0.47325   0.48402   0.48469   0.49023
 Alpha virt. eigenvalues --    0.49330   0.49600   0.49822   0.50371   0.50692
 Alpha virt. eigenvalues --    0.50797   0.51069   0.51230   0.51390   0.51658
 Alpha virt. eigenvalues --    0.51969   0.52182   0.53226   0.53374   0.53507
 Alpha virt. eigenvalues --    0.53591   0.53994   0.54601   0.54678   0.54958
 Alpha virt. eigenvalues --    0.55025   0.55710   0.56307   0.56865   0.57492
 Alpha virt. eigenvalues --    0.57659   0.57866   0.58124   0.58183   0.58906
 Alpha virt. eigenvalues --    0.59016   0.59255   0.59597   0.59847   0.60062
 Alpha virt. eigenvalues --    0.60519   0.60628   0.61078   0.61245   0.61451
 Alpha virt. eigenvalues --    0.61577   0.61990   0.62165   0.62354   0.62592
 Alpha virt. eigenvalues --    0.62622   0.62843   0.63213   0.63494   0.64232
 Alpha virt. eigenvalues --    0.64648   0.65349   0.65619   0.66316   0.66738
 Alpha virt. eigenvalues --    0.67239   0.67789   0.68467   0.69814   0.70443
 Alpha virt. eigenvalues --    0.70945   0.71319   0.72592   0.72751   0.73169
 Alpha virt. eigenvalues --    0.73574   0.74339   0.75303   0.75951   0.76987
 Alpha virt. eigenvalues --    0.78085   0.79034   0.80264   0.80377   0.82238
 Alpha virt. eigenvalues --    0.83766   0.84227   0.84836   0.86835   0.87784
 Alpha virt. eigenvalues --    0.87848   0.88481   0.89134   0.89885   0.89993
 Alpha virt. eigenvalues --    0.90378   0.90391   0.91019   0.92213   0.93999
 Alpha virt. eigenvalues --    0.94575   0.94634   0.95295   0.96213   0.96776
 Alpha virt. eigenvalues --    0.97205   0.97876   0.98546   0.98834   0.99130
 Alpha virt. eigenvalues --    1.00283   1.01256   1.01809   1.02091   1.02755
 Alpha virt. eigenvalues --    1.03318   1.03636   1.04246   1.04601   1.05235
 Alpha virt. eigenvalues --    1.05250   1.05428   1.06080   1.06338   1.06594
 Alpha virt. eigenvalues --    1.06762   1.07069   1.07461   1.07966   1.08943
 Alpha virt. eigenvalues --    1.10284   1.10689   1.11262   1.11679   1.12439
 Alpha virt. eigenvalues --    1.12725   1.14549   1.15597   1.16234   1.16731
 Alpha virt. eigenvalues --    1.17337   1.19327   1.21023   1.22468   1.22521
 Alpha virt. eigenvalues --    1.24381   1.24641   1.24743   1.25351   1.25713
 Alpha virt. eigenvalues --    1.25869   1.27104   1.28483   1.29179   1.31666
 Alpha virt. eigenvalues --    1.32404   1.32642   1.34130   1.36635   1.39171
 Alpha virt. eigenvalues --    1.39832   1.40953   1.41080   1.42309   1.42701
 Alpha virt. eigenvalues --    1.43286   1.43753   1.43863   1.44989   1.45083
 Alpha virt. eigenvalues --    1.45695   1.46185   1.46309   1.46390   1.46501
 Alpha virt. eigenvalues --    1.46614   1.46866   1.46976   1.47188   1.47328
 Alpha virt. eigenvalues --    1.47920   1.49117   1.49142   1.49797   1.50041
 Alpha virt. eigenvalues --    1.50369   1.51069   1.51248   1.51712   1.52012
 Alpha virt. eigenvalues --    1.52706   1.52983   1.54392   1.54807   1.56077
 Alpha virt. eigenvalues --    1.56240   1.56309   1.56843   1.57024   1.57320
 Alpha virt. eigenvalues --    1.58013   1.58680   1.58708   1.58915   1.58971
 Alpha virt. eigenvalues --    1.58991   1.59367   1.59616   1.59714   1.60229
 Alpha virt. eigenvalues --    1.60420   1.60639   1.61440   1.61694   1.61865
 Alpha virt. eigenvalues --    1.62625   1.63009   1.63579   1.63767   1.64601
 Alpha virt. eigenvalues --    1.64935   1.65138   1.65302   1.65559   1.65891
 Alpha virt. eigenvalues --    1.65963   1.66117   1.66430   1.68097   1.68743
 Alpha virt. eigenvalues --    1.68950   1.69040   1.70214   1.71743   1.72212
 Alpha virt. eigenvalues --    1.73215   1.73334   1.74342   1.75396   1.75752
 Alpha virt. eigenvalues --    1.75901   1.76552   1.77218   1.78600   1.79130
 Alpha virt. eigenvalues --    1.79555   1.79753   1.80241   1.80944   1.81221
 Alpha virt. eigenvalues --    1.82030   1.82460   1.82607   1.83213   1.84718
 Alpha virt. eigenvalues --    1.85490   1.87071   1.87416   1.88045   1.89149
 Alpha virt. eigenvalues --    1.89427   1.91112   1.91481   1.92107   1.93805
 Alpha virt. eigenvalues --    1.93993   1.95978   1.96762   1.97647   1.97697
 Alpha virt. eigenvalues --    1.99226   1.99815   2.00742   2.00825   2.01129
 Alpha virt. eigenvalues --    2.01544   2.01872   2.02509   2.03091   2.03626
 Alpha virt. eigenvalues --    2.04058   2.04269   2.04700   2.05167   2.06186
 Alpha virt. eigenvalues --    2.07075   2.07165   2.07345   2.08337   2.09450
 Alpha virt. eigenvalues --    2.09807   2.09914   2.10537   2.11061   2.11281
 Alpha virt. eigenvalues --    2.12328   2.12722   2.13485   2.14292   2.14876
 Alpha virt. eigenvalues --    2.17084   2.17622   2.18364   2.19288   2.19572
 Alpha virt. eigenvalues --    2.22300   2.23665   2.25270   2.26603   2.28828
 Alpha virt. eigenvalues --    2.29125   2.29318   2.29469   2.29514   2.30648
 Alpha virt. eigenvalues --    2.30893   2.31359   2.32676   2.32927   2.33626
 Alpha virt. eigenvalues --    2.34226   2.34768   2.34883   2.35115   2.35517
 Alpha virt. eigenvalues --    2.35641   2.35678   2.35766   2.35908   2.36070
 Alpha virt. eigenvalues --    2.38326   2.39561   2.41032   2.41552   2.41670
 Alpha virt. eigenvalues --    2.42100   2.42376   2.43223   2.43463   2.44730
 Alpha virt. eigenvalues --    2.44921   2.45808   2.45897   2.45961   2.46108
 Alpha virt. eigenvalues --    2.47006   2.48444   2.48729   2.49196   2.49315
 Alpha virt. eigenvalues --    2.50195   2.51019   2.52423   2.53136   2.53227
 Alpha virt. eigenvalues --    2.53502   2.53586   2.55303   2.56049   2.56645
 Alpha virt. eigenvalues --    2.57000   2.57339   2.58298   2.58777   2.59245
 Alpha virt. eigenvalues --    2.59468   2.60661   2.60848   2.61012   2.61761
 Alpha virt. eigenvalues --    2.64832   2.65312   2.66233   2.66783   2.70219
 Alpha virt. eigenvalues --    2.72189   2.72546   2.72944   2.73224   2.73358
 Alpha virt. eigenvalues --    2.73913   2.74235   2.75853   2.77477   2.78060
 Alpha virt. eigenvalues --    2.79777   2.81265   2.82119   2.82354   2.82438
 Alpha virt. eigenvalues --    2.83872   2.83913   2.84045   2.85162   2.85592
 Alpha virt. eigenvalues --    2.85961   2.86570   2.86966   2.88859   2.89721
 Alpha virt. eigenvalues --    2.90781   2.91581   2.91916   2.93510   2.93902
 Alpha virt. eigenvalues --    2.95406   2.95780   2.96122   2.97930   2.98925
 Alpha virt. eigenvalues --    2.99976   3.03605   3.05372   3.07084   3.07563
 Alpha virt. eigenvalues --    3.07763   3.07862   3.09990   3.11088   3.11247
 Alpha virt. eigenvalues --    3.11561   3.13457   3.13584   3.15029   3.17219
 Alpha virt. eigenvalues --    3.17221   3.18112   3.18737   3.19230   3.20708
 Alpha virt. eigenvalues --    3.21668   3.22031   3.23062   3.24102   3.24345
 Alpha virt. eigenvalues --    3.25872   3.26164   3.26531   3.27810   3.28277
 Alpha virt. eigenvalues --    3.28378   3.29640   3.31608   3.31713   3.33624
 Alpha virt. eigenvalues --    3.33842   3.33983   3.35036   3.36576   3.43934
 Alpha virt. eigenvalues --    3.47016   3.52228   3.53785   3.68814   3.75182
 Alpha virt. eigenvalues --    3.75262   3.75579   3.75867   3.76345   3.76834
 Alpha virt. eigenvalues --    3.76852   3.77598   3.77646   3.77977   3.79023
 Alpha virt. eigenvalues --    3.79595   3.79736   3.80615   3.80712   3.86963
 Alpha virt. eigenvalues --    3.92102   3.94159   3.94253   3.94421   3.95439
 Alpha virt. eigenvalues --    3.96983   4.00797   4.01524   4.03063   4.04311
 Alpha virt. eigenvalues --    4.05530   4.07897   4.08763   4.09316   4.12638
 Alpha virt. eigenvalues --    4.13436   4.14959   4.17522   4.19852   4.22213
 Alpha virt. eigenvalues --    4.24869   4.27672   4.28509   4.31226   4.41411
 Alpha virt. eigenvalues --    4.58223   4.90294   4.92291   4.94312   4.94510
 Alpha virt. eigenvalues --    4.95709   4.96309   4.96608   4.96849   5.20191
 Alpha virt. eigenvalues --    5.20256   5.24503   5.24673   5.29615   5.29846
 Alpha virt. eigenvalues --    5.33504   5.37729   5.65892   5.66023   5.68782
 Alpha virt. eigenvalues --    5.69252   5.74728   5.75150   5.80770   5.90976
 Alpha virt. eigenvalues --    7.81359   7.81711  17.19518  17.21640  17.41712
 Alpha virt. eigenvalues --   17.43114  17.48256  17.52836  23.43427  23.67644
 Alpha virt. eigenvalues --   23.77327  23.77548  23.77899  23.78006  23.78361
 Alpha virt. eigenvalues --   23.78550  23.79617  23.79763  23.80126  23.80158
 Alpha virt. eigenvalues --   23.80944  23.81010  23.84048  23.85872  23.85981
 Alpha virt. eigenvalues --   23.90383  24.03814  24.03999  24.15466  24.20112
 Alpha virt. eigenvalues --   49.87885  49.88081  49.90559  49.90916  49.92531
 Alpha virt. eigenvalues --   49.92799  49.93041  50.01367 188.92657 188.93279
          Condensed to atoms (all electrons):
 Mulliken charges:
               1
     1  C   -0.232580
     2  C    0.238382
     3  C   -0.105272
     4  C   -0.282943
     5  S    0.307716
     6  O   -0.383500
     7  H    0.108873
     8  C   -0.223920
     9  C    0.196149
    10  C   -0.085837
    11  C   -0.306778
    12  S    0.309333
    13  O   -0.348036
    14  H    0.126340
    15  C   -0.042902
    16  H    0.116832
    17  H    0.116687
    18  C    0.014651
    19  H    0.105426
    20  H    0.105442
    21  O   -0.391709
    22  C    0.000294
    23  H    0.098540
    24  H    0.098542
    25  C    0.002672
    26  H    0.096531
    27  H    0.096537
    28  O   -0.389986
    29  C    0.000582
    30  H    0.097947
    31  H    0.097737
    32  C   -0.007944
    33  H    0.094446
    34  H    0.094240
    35  O   -0.370638
    36  C   -0.102034
    37  H    0.089271
    38  H    0.115810
    39  H    0.089106
    40  C   -0.070080
    41  H    0.112805
    42  H    0.112970
    43  C    0.025600
    44  H    0.102132
    45  H    0.101851
    46  O   -0.383551
    47  C   -0.001379
    48  H    0.097830
    49  H    0.097986
    50  C    0.002517
    51  H    0.097963
    52  H    0.097860
    53  O   -0.390743
    54  C    0.000800
    55  H    0.098011
    56  H    0.097467
    57  C   -0.008047
    58  H    0.094456
    59  H    0.094010
    60  O   -0.370359
    61  C   -0.102044
    62  H    0.089161
    63  H    0.115349
    64  H    0.089205
    65  H    0.119053
    66  H    0.135168
 Sum of Mulliken charges =  -0.00000
 Mulliken charges with hydrogens summed into heavy atoms:
               1
     1  C   -0.232580
     2  C    0.238382
     3  C    0.003601
     4  C   -0.163890
     5  S    0.307716
     6  O   -0.383500
     8  C   -0.223920
     9  C    0.196149
    10  C    0.040502
    11  C   -0.171609
    12  S    0.309333
    13  O   -0.348036
    15  C    0.190617
    18  C    0.225519
    21  O   -0.391709
    22  C    0.197376
    25  C    0.195741
    28  O   -0.389986
    29  C    0.196266
    32  C    0.180741
    35  O   -0.370638
    36  C    0.192153
    40  C    0.155696
    43  C    0.229583
    46  O   -0.383551
    47  C    0.194438
    50  C    0.198340
    53  O   -0.390743
    54  C    0.196278
    57  C    0.180419
    60  O   -0.370359
    61  C    0.191671
 Electronic spatial extent (au):  <R**2>=          57785.6482
 Charge=             -0.0000 electrons
 Dipole moment (field-independent basis, Debye):
    X=              0.7969    Y=              0.4361    Z=              0.0048  Tot=              0.9085
 Quadrupole moment (field-independent basis, Debye-Ang):
   XX=           -167.5941   YY=           -197.0370   ZZ=           -210.3945
   XY=            -20.6694   XZ=             -0.0307   YZ=              0.0083
 Traceless Quadrupole moment (field-independent basis, Debye-Ang):
   XX=             24.0811   YY=             -5.3618   ZZ=            -18.7193
   XY=            -20.6694   XZ=             -0.0307   YZ=              0.0083
 Octapole moment (field-independent basis, Debye-Ang**2):
  XXX=            -32.3550  YYY=              7.5556  ZZZ=              0.2250  XYY=             31.6000
  XXY=             -7.4497  XXZ=              0.6596  XZZ=              1.1390  YZZ=             -1.0504
  YYZ=             -0.0161  XYZ=             -0.1977
 Hexadecapole moment (field-independent basis, Debye-Ang**3):
 XXXX=         -60449.7862 YYYY=          -2472.0535 ZZZZ=           -329.3292 XXXY=          -4456.0023
 XXXZ=             -8.4471 YYYX=             27.3648 YYYZ=              0.0252 ZZZX=             -0.0166
 ZZZY=             -0.0687 XXYY=         -12394.3893 XXZZ=         -11991.8792 YYZZ=           -545.0250
 XXYZ=              0.2828 YYXZ=              0.1773 ZZXY=             -5.9890
 N-N= 3.223443718498D+03 E-N=-1.175574478352D+04  KE= 2.251301657133D+03
 No NMR shielding tensors so no spin-rotation constants.
 Leave Link  601 at Mon Jan 13 14:45:03 2020, MaxMem=  6710886400 cpu:               6.4 elap:               0.9
 (Enter /apps/gaussian/g16-a03/l602.exe)
 FitSet:  NAtFit=    66 NAtPot=    66 NAtFrz=     0 MDM=    70 TotChg=   0.00000
 Breneman (CHELPG) radii used.
 Generate Potential Derived Charges using the Breneman model, NDens= 1.
 Grid spacing= 0.300 Box extension= 2.800
 NStep X,Y,Z=  121     48     26   Total possible points=      151008
 Number of Points to Fit=   38099

 **********************************************************************

            Electrostatic Properties Using The SCF Density

 **********************************************************************

       Atomic Center    1 is at   0.185017  0.870263 -0.006595
       Atomic Center    2 is at   1.450938  1.433717 -0.004657
       Atomic Center    3 is at   1.459261  2.857885 -0.004109
       Atomic Center    4 is at   0.196788  3.378259 -0.005633
       Atomic Center    5 is at  -1.019641  2.152526 -0.007753
       Atomic Center    6 is at   2.549417  0.624854 -0.003465
       Atomic Center    7 is at   2.353051  3.463231 -0.002662
       Atomic Center    8 is at  -0.166474 -0.529822 -0.007602
       Atomic Center    9 is at  -1.432396 -1.093275 -0.009540
       Atomic Center   10 is at  -1.439781 -2.518503 -0.010088
       Atomic Center   11 is at  -0.178246 -3.037817 -0.008565
       Atomic Center   12 is at   1.038183 -1.812084 -0.006444
       Atomic Center   13 is at  -2.530936 -0.285411 -0.010733
       Atomic Center   14 is at  -2.334570 -3.123787 -0.011536
       Atomic Center   15 is at   3.836370  1.237110 -0.001480
       Atomic Center   16 is at   3.967663  1.860825  0.888935
       Atomic Center   17 is at   3.970090  1.861497 -0.892063
       Atomic Center   18 is at   4.860642  0.117212 -0.000507
       Atomic Center   19 is at   4.722442 -0.514914  0.888067
       Atomic Center   20 is at   4.724865 -0.514243 -0.889931
       Atomic Center   21 is at   6.136493  0.728146  0.001463
       Atomic Center   22 is at   7.206655 -0.199204  0.002572
       Atomic Center   23 is at   7.166778 -0.845383  0.891274
       Atomic Center   24 is at   7.169201 -0.844713 -0.886724
       Atomic Center   25 is at   8.500834  0.595953  0.004635
       Atomic Center   26 is at   8.538288  1.241462  0.893931
       Atomic Center   27 is at   8.540711  1.242133 -0.884067
       Atomic Center   28 is at   9.567940 -0.332211  0.005740
       Atomic Center   29 is at  10.845787  0.278601  0.007712
       Atomic Center   30 is at  10.977573  0.910301  0.896130
       Atomic Center   31 is at  10.980993  0.910910 -0.880866
       Atomic Center   32 is at  11.883832 -0.829119  0.008709
       Atomic Center   33 is at  11.749927 -1.462693 -0.879714
       Atomic Center   34 is at  11.747505 -1.463363  0.897284
       Atomic Center   35 is at  13.158746 -0.217126  0.010677
       Atomic Center   36 is at  14.218497 -1.150849  0.011769
       Atomic Center   37 is at  14.192272 -1.793039 -0.880510
       Atomic Center   38 is at  15.149007 -0.583827  0.013251
       Atomic Center   39 is at  14.189840 -1.793712  0.904489
       Atomic Center   40 is at  -3.758623 -0.846203 -0.012618
       Atomic Center   41 is at  -3.266736 -1.251530  0.877901
       Atomic Center   42 is at  -3.265307 -1.250797 -0.903099
       Atomic Center   43 is at  -4.904596  0.151924 -0.007803
       Atomic Center   44 is at  -4.838442  0.791663  0.881529
       Atomic Center   45 is at  -4.842883  0.794759 -0.896477
       Atomic Center   46 is at  -6.101079 -0.602147 -0.004718
       Atomic Center   47 is at  -7.272288  0.197154 -0.001013
       Atomic Center   48 is at  -7.304074  0.840904  0.889188
       Atomic Center   49 is at  -7.308576  0.843002 -0.888820
       Atomic Center   50 is at  -8.466015 -0.740431  0.001006
       Atomic Center   51 is at  -8.427853 -1.388397  0.888815
       Atomic Center   52 is at  -8.433353 -1.386238 -0.889194
       Atomic Center   53 is at  -9.633169  0.059623  0.004718
       Atomic Center   54 is at -10.832586 -0.693266  0.007799
       Atomic Center   55 is at -10.889428 -1.338403  0.894479
       Atomic Center   56 is at -10.895928 -1.336183 -0.882531
       Atomic Center   57 is at -11.990579  0.288568  0.011591
       Atomic Center   58 is at -11.930681  0.934519 -0.875085
       Atomic Center   59 is at -11.925241  0.931362  0.901923
       Atomic Center   60 is at -13.187063 -0.465503  0.014676
       Atomic Center   61 is at -14.345743  0.342045  0.019401
       Atomic Center   62 is at -14.395369  0.982703 -0.872426
       Atomic Center   63 is at -15.206468 -0.328451  0.019975
       Atomic Center   64 is at -14.389817  0.981539  0.912583
       Atomic Center   65 is at   0.119809  4.424946 -0.005343
       Atomic Center   66 is at   0.271462 -3.986170 -0.008309
   38099 points will be used for fitting atomic charges
 Fitting point charges to electrostatic potential
 Charges from ESP fit, RMS=   0.00329 RRMS=   0.34530:
 ESP charges:
               1
     1  C   -0.099043
     2  C    0.440004
     3  C   -0.391904
     4  C   -0.064530
     5  S   -0.092070
     6  O   -0.433252
     7  H    0.164070
     8  C   -0.073266
     9  C    0.284593
    10  C   -0.186216
    11  C   -0.218087
    12  S   -0.021579
    13  O   -0.160765
    14  H    0.109713
    15  C    0.244696
    16  H    0.009303
    17  H    0.009145
    18  C    0.383913
    19  H   -0.028343
    20  H   -0.028039
    21  O   -0.591105
    22  C    0.315185
    23  H   -0.022664
    24  H   -0.022785
    25  C    0.401410
    26  H   -0.034841
    27  H   -0.035039
    28  O   -0.578170
    29  C    0.270094
    30  H   -0.016273
    31  H   -0.016157
    32  C    0.316636
    33  H   -0.011481
    34  H   -0.011646
    35  O   -0.465018
    36  C    0.169419
    37  H   -0.005518
    38  H    0.043712
    39  H   -0.005398
    40  C   -0.157774
    41  H    0.058887
    42  H    0.059139
    43  C    0.521315
    44  H   -0.042291
    45  H   -0.043471
    46  O   -0.554122
    47  C    0.237989
    48  H   -0.011508
    49  H   -0.011048
    50  C    0.432661
    51  H   -0.040552
    52  H   -0.041142
    53  O   -0.572849
    54  C    0.283994
    55  H   -0.021205
    56  H   -0.021278
    57  C    0.301561
    58  H   -0.009514
    59  H   -0.010069
    60  O   -0.456712
    61  C    0.153607
    62  H   -0.001078
    63  H    0.046747
    64  H   -0.000952
    65  H    0.150623
    66  H    0.200335
 Sum of ESP charges =  -0.00000
 ESP charges with hydrogens summed into heavy atoms:
               1
     1  C   -0.099043
     2  C    0.440004
     3  C   -0.227834
     4  C    0.086092
     5  S   -0.092070
     6  O   -0.433252
     8  C   -0.073266
     9  C    0.284593
    10  C   -0.076504
    11  C   -0.017752
    12  S   -0.021579
    13  O   -0.160765
    15  C    0.263144
    18  C    0.327531
    21  O   -0.591105
    22  C    0.269736
    25  C    0.331530
    28  O   -0.578170
    29  C    0.237664
    32  C    0.293510
    35  O   -0.465018
    36  C    0.202215
    40  C   -0.039748
    43  C    0.435553
    46  O   -0.554122
    47  C    0.215433
    50  C    0.350966
    53  O   -0.572849
    54  C    0.241512
    57  C    0.281978
    60  O   -0.456712
    61  C    0.198323
 Charge=  -0.00000 Dipole=     0.7919     0.4182     0.0079 Tot=     0.8956
 -----------------------------------------------------------------

              Electrostatic Properties (Atomic Units)

 -----------------------------------------------------------------
    Center     Electric         -------- Electric Field --------
               Potential          X             Y             Z
 -----------------------------------------------------------------
    1 Atom    -14.744304
    2 Atom    -14.716219
    3 Atom    -14.777400
    4 Atom    -14.759891
    5 Atom    -59.220148
    6 Atom    -22.335720
    7 Atom     -1.092889
    8 Atom    -14.741710
    9 Atom    -14.712848
   10 Atom    -14.768969
   11 Atom    -14.757144
   12 Atom    -59.223140
   13 Atom    -22.347708
   14 Atom     -1.093093
   15 Atom    -14.712812
   16 Atom     -1.108529
   17 Atom     -1.108491
   18 Atom    -14.719796
   19 Atom     -1.115457
   20 Atom     -1.115460
   21 Atom    -22.361923
   22 Atom    -14.723778
   23 Atom     -1.118822
   24 Atom     -1.118822
   25 Atom    -14.725232
   26 Atom     -1.120286
   27 Atom     -1.120292
   28 Atom    -22.366579
   29 Atom    -14.727732
   30 Atom     -1.122418
   31 Atom     -1.122366
   32 Atom    -14.729074
   33 Atom     -1.123075
   34 Atom     -1.123055
   35 Atom    -22.371266
   36 Atom    -14.730995
   37 Atom     -1.117684
   38 Atom     -1.114676
   39 Atom     -1.117647
   40 Atom    -14.733547
   41 Atom     -1.072434
   42 Atom     -1.072198
   43 Atom    -14.712526
   44 Atom     -1.110563
   45 Atom     -1.110546
   46 Atom    -22.365023
   47 Atom    -14.725725
   48 Atom     -1.120333
   49 Atom     -1.120350
   50 Atom    -14.727104
   51 Atom     -1.122351
   52 Atom     -1.122382
   53 Atom    -22.368237
   54 Atom    -14.729161
   55 Atom     -1.123950
   56 Atom     -1.123953
   57 Atom    -14.730370
   58 Atom     -1.124196
   59 Atom     -1.124278
   60 Atom    -22.372337
   61 Atom    -14.731975
   62 Atom     -1.118670
   63 Atom     -1.115609
   64 Atom     -1.118550
   65 Atom     -1.087669
   66 Atom     -1.083304
 -----------------------------------------------------------------
 Leave Link  602 at Mon Jan 13 14:45:08 2020, MaxMem=  6710886400 cpu:              35.6 elap:               4.5
 (Enter /apps/gaussian/g16-a03/l9999.exe)
 1\1\GINC-CX1-141-15-4\SP\RB3LYP\6-311G(d,p)\C22H34O8S2\NS5018\13-Jan-2
 020\0\\#p pop=ChelpG b3lyp/6-311g**\\O3G_1m_0sc_pop.pdb\\0,1\C,0,-5.7,
 0.668,-0.051\C,0,-4.471,1.308,-0.051\C,0,-4.55,2.73,-0.051\C,0,-5.842,
 3.172,-0.051\S,0,-6.981,1.874,-0.051\O,0,-3.325,0.568,-0.051\H,0,-3.69
 5,3.389,-0.051\C,0,-5.965,-0.751,-0.051\C,0,-7.194,-1.391,-0.051\C,0,-
 7.114,-2.814,-0.051\C,0,-5.823,-3.255,-0.051\S,0,-4.684,-1.957,-0.051\
 O,0,-8.34,-0.652,-0.051\H,0,-7.97,-3.473,-0.051\C,0,-2.078,1.258,-0.05
 1\H,0,-1.984,1.889,0.839\H,0,-1.984,1.889,-0.942\C,0,-0.987,0.203,-0.0
 51\H,0,-1.085,-0.436,0.838\H,0,-1.085,-0.436,-0.94\O,0,0.249,0.891,-0.
 051\C,0,1.374,0.031,-0.051\H,0,1.375,-0.616,0.838\H,0,1.375,-0.616,-0.
 94\C,0,2.617,0.904,-0.051\H,0,2.616,1.551,0.838\H,0,2.616,1.551,-0.94\
 O,0,3.739,0.043,-0.051\C,0,4.977,0.731,-0.051\H,0,5.071,1.37,0.837\H,0
 ,5.072,1.37,-0.94\C,0,6.081,-0.311,-0.051\H,0,5.985,-0.952,-0.939\H,0,
 5.985,-0.952,0.838\O,0,7.316,0.378,-0.051\C,0,8.431,-0.489,-0.051\H,0,
 8.443,-1.132,-0.943\H,0,9.325,0.134,-0.051\H,0,8.443,-1.132,0.842\C,0,
 -9.531,-1.287,-0.051\H,0,-9.014,-1.661,0.839\H,0,-9.015,-1.661,-0.942\
 C,0,-10.736,-0.361,-0.045\H,0,-10.708,0.282,0.844\H,0,-10.715,0.284,-0
 .934\O,0,-11.884,-1.187,-0.04\C,0,-13.102,-0.461,-0.035\H,0,-13.172,0.
 18,0.855\H,0,-13.179,0.181,-0.923\C,0,-14.236,-1.47,-0.031\H,0,-14.157
 ,-2.114,0.857\H,0,-14.165,-2.113,-0.921\O,0,-15.45,-0.743,-0.026\C,0,-
 16.601,-1.568,-0.021\H,0,-16.617,-2.215,0.866\H,0,-16.626,-2.214,-0.91
 1\C,0,-17.817,-0.659,-0.016\H,0,-17.798,-0.011,-0.903\H,0,-17.79,-0.01
 3,0.874\O,0,-18.965,-1.485,-0.011\C,0,-20.171,-0.75,-0.005\H,0,-20.261
 ,-0.114,-0.897\H,0,-20.989,-1.472,-0.003\H,0,-20.253,-0.114,0.888\H,0,
 -5.983,4.212,-0.051\H,0,-5.316,-4.174,-0.051\\Version=ES64L-G16RevA.03
 \State=1-A\HF=-2257.1337972\RMSD=6.476e-09\Dipole=0.302434,0.1904735,0
 .0014113\Quadrupole=19.7019088,-5.7846598,-13.9172489,-13.9122433,-0.0
 617025,0.0196062\PG=C01 [X(C22H34O8S2)]\\@


 ROSE IS A RED
 TY COBB IS BLUE
 'CAUSE PETE JUST HIT
 NO. 4592.
 Job cpu time:       0 days  0 hours 37 minutes 37.7 seconds.
 Elapsed time:       0 days  0 hours  4 minutes 43.5 seconds.
 File lengths (MBytes):  RWF=    346 Int=      0 D2E=      0 Chk=     38 Scr=      1
 Normal termination of Gaussian 16 at Mon Jan 13 14:45:09 2020.
