 Entering Gaussian System, Link 0=g16
 Input=O3G_4m_0sc_opt_pop.gjf
 Output=O3G_4m_0sc_opt_pop.log
 Initial command:
 /apps/gaussian/g16-a03/l1.exe "/tmp/pbs.955430.pbs/Gau-8082.inp" -scrdir="/tmp/pbs.955430.pbs/"
 Entering Link 1 = /apps/gaussian/g16-a03/l1.exe PID=      8083.
  
 Copyright (c) 1988,1990,1992,1993,1995,1998,2003,2009,2016,
            Gaussian, Inc.  All Rights Reserved.
  
 This is part of the Gaussian(R) 16 program.  It is based on
 the Gaussian(R) 09 system (copyright 2009, Gaussian, Inc.),
 the Gaussian(R) 03 system (copyright 2003, Gaussian, Inc.),
 the Gaussian(R) 98 system (copyright 1998, Gaussian, Inc.),
 the Gaussian(R) 94 system (copyright 1995, Gaussian, Inc.),
 the Gaussian 92(TM) system (copyright 1992, Gaussian, Inc.),
 the Gaussian 90(TM) system (copyright 1990, Gaussian, Inc.),
 the Gaussian 88(TM) system (copyright 1988, Gaussian, Inc.),
 the Gaussian 86(TM) system (copyright 1986, Carnegie Mellon
 University), and the Gaussian 82(TM) system (copyright 1983,
 Carnegie Mellon University). Gaussian is a federally registered
 trademark of Gaussian, Inc.
  
 This software contains proprietary and confidential information,
 including trade secrets, belonging to Gaussian, Inc.
  
 This software is provided under written license and may be
 used, copied, transmitted, or stored only in accord with that
 written license.
  
 The following legend is applicable only to US Government
 contracts under FAR:
  
                    RESTRICTED RIGHTS LEGEND
  
 Use, reproduction and disclosure by the US Government is
 subject to restrictions as set forth in subparagraphs (a)
 and (c) of the Commercial Computer Software - Restricted
 Rights clause in FAR 52.227-19.
  
 Gaussian, Inc.
 340 Quinnipiac St., Bldg. 40, Wallingford CT 06492
  
  
 ---------------------------------------------------------------
 Warning -- This program may not be used in any manner that
 competes with the business of Gaussian, Inc. or will provide
 assistance to any competitor of Gaussian, Inc.  The licensee
 of this program is prohibited from giving any competitor of
 Gaussian, Inc. access to this program.  By using this program,
 the user acknowledges that Gaussian, Inc. is engaged in the
 business of creating and licensing software in the field of
 computational chemistry and represents and warrants to the
 licensee that it is not a competitor of Gaussian, Inc. and that
 it will not use this program in any manner prohibited above.
 ---------------------------------------------------------------
  

 Cite this work as:
 Gaussian 16, Revision A.03,
 M. J. Frisch, G. W. Trucks, H. B. Schlegel, G. E. Scuseria, 
 M. A. Robb, J. R. Cheeseman, G. Scalmani, V. Barone, 
 G. A. Petersson, H. Nakatsuji, X. Li, M. Caricato, A. V. Marenich, 
 J. Bloino, B. G. Janesko, R. Gomperts, B. Mennucci, H. P. Hratchian, 
 J. V. Ortiz, A. F. Izmaylov, J. L. Sonnenberg, D. Williams-Young, 
 F. Ding, F. Lipparini, F. Egidi, J. Goings, B. Peng, A. Petrone, 
 T. Henderson, D. Ranasinghe, V. G. Zakrzewski, J. Gao, N. Rega, 
 G. Zheng, W. Liang, M. Hada, M. Ehara, K. Toyota, R. Fukuda, 
 J. Hasegawa, M. Ishida, T. Nakajima, Y. Honda, O. Kitao, H. Nakai, 
 T. Vreven, K. Throssell, J. A. Montgomery, Jr., J. E. Peralta, 
 F. Ogliaro, M. J. Bearpark, J. J. Heyd, E. N. Brothers, K. N. Kudin, 
 V. N. Staroverov, T. A. Keith, R. Kobayashi, J. Normand, 
 K. Raghavachari, A. P. Rendell, J. C. Burant, S. S. Iyengar, 
 J. Tomasi, M. Cossi, J. M. Millam, M. Klene, C. Adamo, R. Cammi, 
 J. W. Ochterski, R. L. Martin, K. Morokuma, O. Farkas, 
 J. B. Foresman, and D. J. Fox, Gaussian, Inc., Wallingford CT, 2016.
 
 ******************************************
 Gaussian 16:  ES64L-G16RevA.03 25-Dec-2016
                13-Jan-2020 
 ******************************************
 %mem=50GB
 %nprocshared=16
 Will use up to   16 processors via shared memory.
 --------------------------------
 #p opt Pop=CHelpG b3lyp/6-311g**
 --------------------------------
 1/18=20,19=15,26=3,38=1/1,3;
 2/9=110,12=2,17=6,18=5,40=1/2;
 3/5=4,6=6,7=101,11=2,25=1,30=1,71=1,74=-5/1,2,3;
 4//1;
 5/5=2,38=5/2;
 6/7=2,8=2,9=2,10=2,15=8,20=3,28=1/1,2;
 7//1,2,3,16;
 1/18=20,19=15,26=3/3(2);
 2/9=110/2;
 99//99;
 2/9=110/2;
 3/5=4,6=6,7=101,11=2,25=1,30=1,71=1,74=-5/1,2,3;
 4/5=5,16=3,69=1/1;
 5/5=2,38=5/2;
 7//1,2,3,16;
 1/18=20,19=15,26=3/3(-5);
 2/9=110/2;
 6/7=2,8=2,9=2,10=2,15=8,19=2,20=3,28=1/1,2;
 99/9=1/99;
 Leave Link    1 at Mon Jan 13 15:22:06 2020, MaxMem=  6710886400 cpu:               0.5 elap:               0.0
 (Enter /apps/gaussian/g16-a03/l101.exe)
 ----------------------
 O3G_4m_0sc_opt_pop.gjf
 ----------------------
 Symbolic Z-matrix:
 Charge =  0 Multiplicity = 1
 C                     3.284     0.208     0. 
 C                     2.667     1.453     0. 
 C                     1.251     1.445     0. 
 C                     0.687     0.187     0. 
 S                     1.992    -1.094     0. 
 O                     3.468     2.589     0. 
 H                     0.652     2.342     0. 
 C                     4.668    -0.104     0. 
 C                     5.285    -1.348     0. 
 C                     6.701    -1.34      0. 
 C                     7.264    -0.082     0. 
 S                     5.96      1.199     0. 
 O                     4.484    -2.484     0. 
 H                     7.301    -2.237     0. 
 C                     5.123    -3.79      0. 
 H                     4.307    -4.504     0. 
 H                     5.734    -3.927    -0.894 
 H                     5.734    -3.927     0.895 
 C                     11.235    0.313     0. 
 C                     10.622    1.555     0. 
 C                     9.204     1.549     0. 
 C                     8.64      0.293     0. 
 S                     9.944    -0.988     0. 
 O                     11.423    2.692     0. 
 H                     8.606     2.447     0. 
 C                     12.624   -0.005     0. 
 C                     13.234   -1.248     0. 
 C                     14.664   -1.234     0. 
 C                     15.19     0.021     0. 
 S                     13.921    1.294     0. 
 O                     12.436   -2.388     0. 
 H                     15.272   -2.125     0. 
 C                     10.786    3.998     0. 
 H                     10.175    4.136     0.895 
 H                     10.175    4.136    -0.895 
 H                     11.603    4.711     0. 
 C                     13.078   -3.691     0. 
 H                     12.264   -4.408     0. 
 H                     13.689   -3.828    -0.895 
 H                     13.689   -3.828     0.895 
 H                     16.224    0.315     0. 
 C                    -12.624    0.005     0. 
 C                    -13.234    1.248     0. 
 C                    -14.664    1.234     0. 
 C                    -15.19    -0.021     0. 
 S                    -13.921   -1.294     0. 
 O                    -12.436    2.388     0. 
 H                    -15.272    2.125     0. 
 C                    -11.235   -0.313     0. 
 C                    -10.622   -1.555     0. 
 C                    -9.204    -1.549     0. 
 C                    -8.64     -0.293     0. 
 S                    -9.944     0.988     0. 
 O                    -11.423   -2.692     0. 
 H                    -8.606    -2.447     0. 
 C                    -13.078    3.691     0. 
 H                    -13.689    3.828     0.895 
 H                    -13.689    3.828    -0.895 
 H                    -12.264    4.408     0. 
 C                    -10.786   -3.998     0. 
 H                    -11.603   -4.711     0. 
 H                    -10.175   -4.136    -0.895 
 H                    -10.175   -4.136     0.895 
 H                    -16.224   -0.315     0. 
 C                    -4.668     0.104     0. 
 C                    -5.285     1.348     0. 
 C                    -6.701     1.34      0. 
 C                    -7.264     0.082     0. 
 S                    -5.96     -1.199     0. 
 O                    -4.484     2.484     0. 
 H                    -7.301     2.237     0. 
 C                    -3.284    -0.208     0. 
 C                    -2.667    -1.453     0. 
 C                    -1.251    -1.445     0. 
 C                    -0.687    -0.187     0. 
 S                    -1.992     1.094     0. 
 O                    -3.468    -2.589     0. 
 H                    -0.652    -2.342     0. 
 C                    -5.123     3.79      0. 
 H                    -5.734     3.927     0.895 
 H                    -5.734     3.927    -0.895 
 H                    -4.307     4.504     0. 
 C                    -2.482    -3.511     0. 
 H                    -2.03     -3.96      0.89 
 H                    -2.03     -3.96     -0.891 
 C                    -3.457    -4.674     0. 
 H                    -4.101    -4.621     0.889 
 H                    -4.101    -4.621    -0.889 
 O                    -2.683    -5.857     0. 
 C                    -3.462    -7.041     0. 
 H                    -4.106    -7.087     0.889 
 H                    -4.106    -7.087    -0.889 
 C                    -2.503    -8.219     0. 
 H                    -1.857    -8.172     0.889 
 H                    -1.857    -8.172    -0.889 
 O                    -3.282    -9.399     0. 
 C                    -2.508    -10.585    0. 
 H                    -1.864    -10.634    0.888 
 H                    -1.863    -10.635   -0.889 
 C                    -3.469    -11.76     0. 
 H                    -4.115    -11.71    -0.888 
 H                    -4.115    -11.71     0.889 
 O                    -2.694    -12.944    0. 
 C                    -3.481    -14.117    0. 
 H                    -4.122    -14.175   -0.892 
 H                    -2.796    -14.965    0. 
 H                    -4.122    -14.175    0.893 
 C                     2.615     3.641     0. 
 H                     2.036     3.372     0.89 
 H                     2.036     3.372    -0.891 
 C                     3.626     4.773     0. 
 H                     4.268     4.701     0.889 
 H                     4.268     4.701    -0.889 
 O                     2.888     5.98      0. 
 C                     3.703     7.14      0. 
 H                     4.349     7.166     0.889 
 H                     4.349     7.166    -0.889 
 C                     2.781     8.346     0. 
 H                     2.134     8.319     0.889 
 H                     2.134     8.319    -0.889 
 O                     3.596     9.501     0. 
 C                     2.859     10.711    0. 
 H                     2.216     10.78     0.888 
 H                     2.216     10.781   -0.889 
 C                     3.856     11.856    0. 
 H                     4.5       11.786   -0.888 
 H                     4.5       11.786    0.889 
 O                     3.118     13.063    0. 
 C                     3.94      14.211    0. 
 H                     4.582     14.249   -0.892 
 H                     3.28      15.08     0. 
 H                     4.582     14.249    0.893 
 
 ITRead=  0  0  0  0  0  0  0  0  0  0  0  0  0  0  0  0  0  0  0  0
 ITRead=  0  0  0  0  0  0  0  0  0  0  0  0  0  0  0  0  0  0  0  0
 ITRead=  0  0  0  0  0  0  0  0  0  0  0  0  0  0  0  0  0  0  0  0
 ITRead=  0  0  0  0  0  0  0  0  0  0  0  0  0  0  0  0  0  0  0  0
 ITRead=  0  0  0  0  0  0  0  0  0  0  0  0  0  0  0  0  0  0  0  0
 ITRead=  0  0  0  0  0  0  0  0  0  0  0  0  0  0  0  0  0  0  0  0
 ITRead=  0  0  0  0  0  0  0  0  0  0  0  0
 MicOpt= -1 -1 -1 -1 -1 -1 -1 -1 -1 -1 -1 -1 -1 -1 -1 -1 -1 -1 -1 -1
 MicOpt= -1 -1 -1 -1 -1 -1 -1 -1 -1 -1 -1 -1 -1 -1 -1 -1 -1 -1 -1 -1
 MicOpt= -1 -1 -1 -1 -1 -1 -1 -1 -1 -1 -1 -1 -1 -1 -1 -1 -1 -1 -1 -1
 MicOpt= -1 -1 -1 -1 -1 -1 -1 -1 -1 -1 -1 -1 -1 -1 -1 -1 -1 -1 -1 -1
 MicOpt= -1 -1 -1 -1 -1 -1 -1 -1 -1 -1 -1 -1 -1 -1 -1 -1 -1 -1 -1 -1
 MicOpt= -1 -1 -1 -1 -1 -1 -1 -1 -1 -1 -1 -1 -1 -1 -1 -1 -1 -1 -1 -1
 MicOpt= -1 -1 -1 -1 -1 -1 -1 -1 -1 -1 -1 -1
 NAtoms=    132 NQM=      132 NQMF=       0 NMMI=      0 NMMIF=      0
                NMic=       0 NMicF=      0.
                    Isotopes and Nuclear Properties:
 (Nuclear quadrupole moments (NQMom) in fm**2, nuclear magnetic moments (NMagM)
  in nuclear magnetons)

  Atom         1           2           3           4           5           6           7           8           9          10
 IAtWgt=          12          12          12          12          32          16           1          12          12          12
 AtmWgt=  12.0000000  12.0000000  12.0000000  12.0000000  31.9720718  15.9949146   1.0078250  12.0000000  12.0000000  12.0000000
 NucSpn=           0           0           0           0           0           0           1           0           0           0
 AtZEff=  -0.0000000  -0.0000000  -0.0000000  -0.0000000  -0.0000000  -0.0000000  -0.0000000  -0.0000000  -0.0000000  -0.0000000
 NQMom=    0.0000000   0.0000000   0.0000000   0.0000000   0.0000000   0.0000000   0.0000000   0.0000000   0.0000000   0.0000000
 NMagM=    0.0000000   0.0000000   0.0000000   0.0000000   0.0000000   0.0000000   2.7928460   0.0000000   0.0000000   0.0000000
 AtZNuc=   6.0000000   6.0000000   6.0000000   6.0000000  16.0000000   8.0000000   1.0000000   6.0000000   6.0000000   6.0000000

  Atom        11          12          13          14          15          16          17          18          19          20
 IAtWgt=          12          32          16           1          12           1           1           1          12          12
 AtmWgt=  12.0000000  31.9720718  15.9949146   1.0078250  12.0000000   1.0078250   1.0078250   1.0078250  12.0000000  12.0000000
 NucSpn=           0           0           0           1           0           1           1           1           0           0
 AtZEff=  -0.0000000  -0.0000000  -0.0000000  -0.0000000  -0.0000000  -0.0000000  -0.0000000  -0.0000000  -0.0000000  -0.0000000
 NQMom=    0.0000000   0.0000000   0.0000000   0.0000000   0.0000000   0.0000000   0.0000000   0.0000000   0.0000000   0.0000000
 NMagM=    0.0000000   0.0000000   0.0000000   2.7928460   0.0000000   2.7928460   2.7928460   2.7928460   0.0000000   0.0000000
 AtZNuc=   6.0000000  16.0000000   8.0000000   1.0000000   6.0000000   1.0000000   1.0000000   1.0000000   6.0000000   6.0000000

  Atom        21          22          23          24          25          26          27          28          29          30
 IAtWgt=          12          12          32          16           1          12          12          12          12          32
 AtmWgt=  12.0000000  12.0000000  31.9720718  15.9949146   1.0078250  12.0000000  12.0000000  12.0000000  12.0000000  31.9720718
 NucSpn=           0           0           0           0           1           0           0           0           0           0
 AtZEff=  -0.0000000  -0.0000000  -0.0000000  -0.0000000  -0.0000000  -0.0000000  -0.0000000  -0.0000000  -0.0000000  -0.0000000
 NQMom=    0.0000000   0.0000000   0.0000000   0.0000000   0.0000000   0.0000000   0.0000000   0.0000000   0.0000000   0.0000000
 NMagM=    0.0000000   0.0000000   0.0000000   0.0000000   2.7928460   0.0000000   0.0000000   0.0000000   0.0000000   0.0000000
 AtZNuc=   6.0000000   6.0000000  16.0000000   8.0000000   1.0000000   6.0000000   6.0000000   6.0000000   6.0000000  16.0000000

  Atom        31          32          33          34          35          36          37          38          39          40
 IAtWgt=          16           1          12           1           1           1          12           1           1           1
 AtmWgt=  15.9949146   1.0078250  12.0000000   1.0078250   1.0078250   1.0078250  12.0000000   1.0078250   1.0078250   1.0078250
 NucSpn=           0           1           0           1           1           1           0           1           1           1
 AtZEff=  -0.0000000  -0.0000000  -0.0000000  -0.0000000  -0.0000000  -0.0000000  -0.0000000  -0.0000000  -0.0000000  -0.0000000
 NQMom=    0.0000000   0.0000000   0.0000000   0.0000000   0.0000000   0.0000000   0.0000000   0.0000000   0.0000000   0.0000000
 NMagM=    0.0000000   2.7928460   0.0000000   2.7928460   2.7928460   2.7928460   0.0000000   2.7928460   2.7928460   2.7928460
 AtZNuc=   8.0000000   1.0000000   6.0000000   1.0000000   1.0000000   1.0000000   6.0000000   1.0000000   1.0000000   1.0000000

  Atom        41          42          43          44          45          46          47          48          49          50
 IAtWgt=           1          12          12          12          12          32          16           1          12          12
 AtmWgt=   1.0078250  12.0000000  12.0000000  12.0000000  12.0000000  31.9720718  15.9949146   1.0078250  12.0000000  12.0000000
 NucSpn=           1           0           0           0           0           0           0           1           0           0
 AtZEff=  -0.0000000  -0.0000000  -0.0000000  -0.0000000  -0.0000000  -0.0000000  -0.0000000  -0.0000000  -0.0000000  -0.0000000
 NQMom=    0.0000000   0.0000000   0.0000000   0.0000000   0.0000000   0.0000000   0.0000000   0.0000000   0.0000000   0.0000000
 NMagM=    2.7928460   0.0000000   0.0000000   0.0000000   0.0000000   0.0000000   0.0000000   2.7928460   0.0000000   0.0000000
 AtZNuc=   1.0000000   6.0000000   6.0000000   6.0000000   6.0000000  16.0000000   8.0000000   1.0000000   6.0000000   6.0000000

  Atom        51          52          53          54          55          56          57          58          59          60
 IAtWgt=          12          12          32          16           1          12           1           1           1          12
 AtmWgt=  12.0000000  12.0000000  31.9720718  15.9949146   1.0078250  12.0000000   1.0078250   1.0078250   1.0078250  12.0000000
 NucSpn=           0           0           0           0           1           0           1           1           1           0
 AtZEff=  -0.0000000  -0.0000000  -0.0000000  -0.0000000  -0.0000000  -0.0000000  -0.0000000  -0.0000000  -0.0000000  -0.0000000
 NQMom=    0.0000000   0.0000000   0.0000000   0.0000000   0.0000000   0.0000000   0.0000000   0.0000000   0.0000000   0.0000000
 NMagM=    0.0000000   0.0000000   0.0000000   0.0000000   2.7928460   0.0000000   2.7928460   2.7928460   2.7928460   0.0000000
 AtZNuc=   6.0000000   6.0000000  16.0000000   8.0000000   1.0000000   6.0000000   1.0000000   1.0000000   1.0000000   6.0000000

  Atom        61          62          63          64          65          66          67          68          69          70
 IAtWgt=           1           1           1           1          12          12          12          12          32          16
 AtmWgt=   1.0078250   1.0078250   1.0078250   1.0078250  12.0000000  12.0000000  12.0000000  12.0000000  31.9720718  15.9949146
 NucSpn=           1           1           1           1           0           0           0           0           0           0
 AtZEff=  -0.0000000  -0.0000000  -0.0000000  -0.0000000  -0.0000000  -0.0000000  -0.0000000  -0.0000000  -0.0000000  -0.0000000
 NQMom=    0.0000000   0.0000000   0.0000000   0.0000000   0.0000000   0.0000000   0.0000000   0.0000000   0.0000000   0.0000000
 NMagM=    2.7928460   2.7928460   2.7928460   2.7928460   0.0000000   0.0000000   0.0000000   0.0000000   0.0000000   0.0000000
 AtZNuc=   1.0000000   1.0000000   1.0000000   1.0000000   6.0000000   6.0000000   6.0000000   6.0000000  16.0000000   8.0000000

  Atom        71          72          73          74          75          76          77          78          79          80
 IAtWgt=           1          12          12          12          12          32          16           1          12           1
 AtmWgt=   1.0078250  12.0000000  12.0000000  12.0000000  12.0000000  31.9720718  15.9949146   1.0078250  12.0000000   1.0078250
 NucSpn=           1           0           0           0           0           0           0           1           0           1
 AtZEff=  -0.0000000  -0.0000000  -0.0000000  -0.0000000  -0.0000000  -0.0000000  -0.0000000  -0.0000000  -0.0000000  -0.0000000
 NQMom=    0.0000000   0.0000000   0.0000000   0.0000000   0.0000000   0.0000000   0.0000000   0.0000000   0.0000000   0.0000000
 NMagM=    2.7928460   0.0000000   0.0000000   0.0000000   0.0000000   0.0000000   0.0000000   2.7928460   0.0000000   2.7928460
 AtZNuc=   1.0000000   6.0000000   6.0000000   6.0000000   6.0000000  16.0000000   8.0000000   1.0000000   6.0000000   1.0000000

  Atom        81          82          83          84          85          86          87          88          89          90
 IAtWgt=           1           1          12           1           1          12           1           1          16          12
 AtmWgt=   1.0078250   1.0078250  12.0000000   1.0078250   1.0078250  12.0000000   1.0078250   1.0078250  15.9949146  12.0000000
 NucSpn=           1           1           0           1           1           0           1           1           0           0
 AtZEff=  -0.0000000  -0.0000000  -0.0000000  -0.0000000  -0.0000000  -0.0000000  -0.0000000  -0.0000000  -0.0000000  -0.0000000
 NQMom=    0.0000000   0.0000000   0.0000000   0.0000000   0.0000000   0.0000000   0.0000000   0.0000000   0.0000000   0.0000000
 NMagM=    2.7928460   2.7928460   0.0000000   2.7928460   2.7928460   0.0000000   2.7928460   2.7928460   0.0000000   0.0000000
 AtZNuc=   1.0000000   1.0000000   6.0000000   1.0000000   1.0000000   6.0000000   1.0000000   1.0000000   8.0000000   6.0000000

  Atom        91          92          93          94          95          96          97          98          99         100
 IAtWgt=           1           1          12           1           1          16          12           1           1          12
 AtmWgt=   1.0078250   1.0078250  12.0000000   1.0078250   1.0078250  15.9949146  12.0000000   1.0078250   1.0078250  12.0000000
 NucSpn=           1           1           0           1           1           0           0           1           1           0
 AtZEff=  -0.0000000  -0.0000000  -0.0000000  -0.0000000  -0.0000000  -0.0000000  -0.0000000  -0.0000000  -0.0000000  -0.0000000
 NQMom=    0.0000000   0.0000000   0.0000000   0.0000000   0.0000000   0.0000000   0.0000000   0.0000000   0.0000000   0.0000000
 NMagM=    2.7928460   2.7928460   0.0000000   2.7928460   2.7928460   0.0000000   0.0000000   2.7928460   2.7928460   0.0000000
 AtZNuc=   1.0000000   1.0000000   6.0000000   1.0000000   1.0000000   8.0000000   6.0000000   1.0000000   1.0000000   6.0000000

  Atom       101         102         103         104         105         106         107         108         109         110
 IAtWgt=           1           1          16          12           1           1           1          12           1           1
 AtmWgt=   1.0078250   1.0078250  15.9949146  12.0000000   1.0078250   1.0078250   1.0078250  12.0000000   1.0078250   1.0078250
 NucSpn=           1           1           0           0           1           1           1           0           1           1
 AtZEff=  -0.0000000  -0.0000000  -0.0000000  -0.0000000  -0.0000000  -0.0000000  -0.0000000  -0.0000000  -0.0000000  -0.0000000
 NQMom=    0.0000000   0.0000000   0.0000000   0.0000000   0.0000000   0.0000000   0.0000000   0.0000000   0.0000000   0.0000000
 NMagM=    2.7928460   2.7928460   0.0000000   0.0000000   2.7928460   2.7928460   2.7928460   0.0000000   2.7928460   2.7928460
 AtZNuc=   1.0000000   1.0000000   8.0000000   6.0000000   1.0000000   1.0000000   1.0000000   6.0000000   1.0000000   1.0000000

  Atom       111         112         113         114         115         116         117         118         119         120
 IAtWgt=          12           1           1          16          12           1           1          12           1           1
 AtmWgt=  12.0000000   1.0078250   1.0078250  15.9949146  12.0000000   1.0078250   1.0078250  12.0000000   1.0078250   1.0078250
 NucSpn=           0           1           1           0           0           1           1           0           1           1
 AtZEff=  -0.0000000  -0.0000000  -0.0000000  -0.0000000  -0.0000000  -0.0000000  -0.0000000  -0.0000000  -0.0000000  -0.0000000
 NQMom=    0.0000000   0.0000000   0.0000000   0.0000000   0.0000000   0.0000000   0.0000000   0.0000000   0.0000000   0.0000000
 NMagM=    0.0000000   2.7928460   2.7928460   0.0000000   0.0000000   2.7928460   2.7928460   0.0000000   2.7928460   2.7928460
 AtZNuc=   6.0000000   1.0000000   1.0000000   8.0000000   6.0000000   1.0000000   1.0000000   6.0000000   1.0000000   1.0000000

  Atom       121         122         123         124         125         126         127         128         129         130
 IAtWgt=          16          12           1           1          12           1           1          16          12           1
 AtmWgt=  15.9949146  12.0000000   1.0078250   1.0078250  12.0000000   1.0078250   1.0078250  15.9949146  12.0000000   1.0078250
 NucSpn=           0           0           1           1           0           1           1           0           0           1
 AtZEff=  -0.0000000  -0.0000000  -0.0000000  -0.0000000  -0.0000000  -0.0000000  -0.0000000  -0.0000000  -0.0000000  -0.0000000
 NQMom=    0.0000000   0.0000000   0.0000000   0.0000000   0.0000000   0.0000000   0.0000000   0.0000000   0.0000000   0.0000000
 NMagM=    0.0000000   0.0000000   2.7928460   2.7928460   0.0000000   2.7928460   2.7928460   0.0000000   0.0000000   2.7928460
 AtZNuc=   8.0000000   6.0000000   1.0000000   1.0000000   6.0000000   1.0000000   1.0000000   8.0000000   6.0000000   1.0000000

  Atom       131         132
 IAtWgt=           1           1
 AtmWgt=   1.0078250   1.0078250
 NucSpn=           1           1
 AtZEff=  -0.0000000  -0.0000000
 NQMom=    0.0000000   0.0000000
 NMagM=    2.7928460   2.7928460
 AtZNuc=   1.0000000   1.0000000
 Leave Link  101 at Mon Jan 13 15:22:07 2020, MaxMem=  6710886400 cpu:               8.4 elap:               0.5
 (Enter /apps/gaussian/g16-a03/l103.exe)

 GradGradGradGradGradGradGradGradGradGradGradGradGradGradGradGradGradGrad
 Berny optimization.
 Initialization pass.
                           ----------------------------
                           !    Initial Parameters    !
                           ! (Angstroms and Degrees)  !
 --------------------------                            --------------------------
 ! Name  Definition              Value          Derivative Info.                !
 --------------------------------------------------------------------------------
 ! R1    R(1,2)                  1.3895         estimate D2E/DX2                !
 ! R2    R(1,5)                  1.8342         estimate D2E/DX2                !
 ! R3    R(1,8)                  1.4187         estimate D2E/DX2                !
 ! R4    R(2,3)                  1.416          estimate D2E/DX2                !
 ! R5    R(2,6)                  1.39           estimate D2E/DX2                !
 ! R6    R(3,4)                  1.3786         estimate D2E/DX2                !
 ! R7    R(3,7)                  1.0786         estimate D2E/DX2                !
 ! R8    R(4,5)                  1.8287         estimate D2E/DX2                !
 ! R9    R(4,75)                 1.424          estimate D2E/DX2                !
 ! R10   R(6,108)                1.3544         estimate D2E/DX2                !
 ! R11   R(8,9)                  1.3886         estimate D2E/DX2                !
 ! R12   R(8,12)                 1.835          estimate D2E/DX2                !
 ! R13   R(9,10)                 1.416          estimate D2E/DX2                !
 ! R14   R(9,13)                 1.39           estimate D2E/DX2                !
 ! R15   R(10,11)                1.3782         estimate D2E/DX2                !
 ! R16   R(10,14)                1.0792         estimate D2E/DX2                !
 ! R17   R(11,12)                1.8279         estimate D2E/DX2                !
 ! R18   R(11,22)                1.4262         estimate D2E/DX2                !
 ! R19   R(13,15)                1.4539         estimate D2E/DX2                !
 ! R20   R(15,16)                1.0843         estimate D2E/DX2                !
 ! R21   R(15,17)                1.0915         estimate D2E/DX2                !
 ! R22   R(15,18)                1.0923         estimate D2E/DX2                !
 ! R23   R(19,20)                1.385          estimate D2E/DX2                !
 ! R24   R(19,23)                1.8328         estimate D2E/DX2                !
 ! R25   R(19,26)                1.4249         estimate D2E/DX2                !
 ! R26   R(20,21)                1.418          estimate D2E/DX2                !
 ! R27   R(20,24)                1.3908         estimate D2E/DX2                !
 ! R28   R(21,22)                1.3768         estimate D2E/DX2                !
 ! R29   R(21,25)                1.0789         estimate D2E/DX2                !
 ! R30   R(22,23)                1.8279         estimate D2E/DX2                !
 ! R31   R(24,33)                1.4531         estimate D2E/DX2                !
 ! R32   R(26,27)                1.3846         estimate D2E/DX2                !
 ! R33   R(26,30)                1.8356         estimate D2E/DX2                !
 ! R34   R(27,28)                1.4301         estimate D2E/DX2                !
 ! R35   R(27,31)                1.3915         estimate D2E/DX2                !
 ! R36   R(28,29)                1.3608         estimate D2E/DX2                !
 ! R37   R(28,32)                1.0787         estimate D2E/DX2                !
 ! R38   R(29,30)                1.7975         estimate D2E/DX2                !
 ! R39   R(29,41)                1.075          estimate D2E/DX2                !
 ! R40   R(31,37)                1.4526         estimate D2E/DX2                !
 ! R41   R(33,34)                1.0924         estimate D2E/DX2                !
 ! R42   R(33,35)                1.0924         estimate D2E/DX2                !
 ! R43   R(33,36)                1.0844         estimate D2E/DX2                !
 ! R44   R(37,38)                1.0848         estimate D2E/DX2                !
 ! R45   R(37,39)                1.0923         estimate D2E/DX2                !
 ! R46   R(37,40)                1.0923         estimate D2E/DX2                !
 ! R47   R(42,43)                1.3846         estimate D2E/DX2                !
 ! R48   R(42,46)                1.8356         estimate D2E/DX2                !
 ! R49   R(42,49)                1.4249         estimate D2E/DX2                !
 ! R50   R(43,44)                1.4301         estimate D2E/DX2                !
 ! R51   R(43,47)                1.3915         estimate D2E/DX2                !
 ! R52   R(44,45)                1.3608         estimate D2E/DX2                !
 ! R53   R(44,48)                1.0787         estimate D2E/DX2                !
 ! R54   R(45,46)                1.7975         estimate D2E/DX2                !
 ! R55   R(45,64)                1.075          estimate D2E/DX2                !
 ! R56   R(47,56)                1.4526         estimate D2E/DX2                !
 ! R57   R(49,50)                1.385          estimate D2E/DX2                !
 ! R58   R(49,53)                1.8328         estimate D2E/DX2                !
 ! R59   R(50,51)                1.418          estimate D2E/DX2                !
 ! R60   R(50,54)                1.3908         estimate D2E/DX2                !
 ! R61   R(51,52)                1.3768         estimate D2E/DX2                !
 ! R62   R(51,55)                1.0789         estimate D2E/DX2                !
 ! R63   R(52,53)                1.8279         estimate D2E/DX2                !
 ! R64   R(52,68)                1.4262         estimate D2E/DX2                !
 ! R65   R(54,60)                1.4531         estimate D2E/DX2                !
 ! R66   R(56,57)                1.0923         estimate D2E/DX2                !
 ! R67   R(56,58)                1.0923         estimate D2E/DX2                !
 ! R68   R(56,59)                1.0848         estimate D2E/DX2                !
 ! R69   R(60,61)                1.0844         estimate D2E/DX2                !
 ! R70   R(60,62)                1.0924         estimate D2E/DX2                !
 ! R71   R(60,63)                1.0924         estimate D2E/DX2                !
 ! R72   R(65,66)                1.3886         estimate D2E/DX2                !
 ! R73   R(65,69)                1.835          estimate D2E/DX2                !
 ! R74   R(65,72)                1.4187         estimate D2E/DX2                !
 ! R75   R(66,67)                1.416          estimate D2E/DX2                !
 ! R76   R(66,70)                1.39           estimate D2E/DX2                !
 ! R77   R(67,68)                1.3782         estimate D2E/DX2                !
 ! R78   R(67,71)                1.0792         estimate D2E/DX2                !
 ! R79   R(68,69)                1.8279         estimate D2E/DX2                !
 ! R80   R(70,79)                1.4539         estimate D2E/DX2                !
 ! R81   R(72,73)                1.3895         estimate D2E/DX2                !
 ! R82   R(72,76)                1.8342         estimate D2E/DX2                !
 ! R83   R(73,74)                1.416          estimate D2E/DX2                !
 ! R84   R(73,77)                1.39           estimate D2E/DX2                !
 ! R85   R(74,75)                1.3786         estimate D2E/DX2                !
 ! R86   R(74,78)                1.0786         estimate D2E/DX2                !
 ! R87   R(75,76)                1.8287         estimate D2E/DX2                !
 ! R88   R(77,83)                1.3499         estimate D2E/DX2                !
 ! R89   R(79,80)                1.0923         estimate D2E/DX2                !
 ! R90   R(79,81)                1.0923         estimate D2E/DX2                !
 ! R91   R(79,82)                1.0843         estimate D2E/DX2                !
 ! R92   R(83,84)                1.0945         estimate D2E/DX2                !
 ! R93   R(83,85)                1.0953         estimate D2E/DX2                !
 ! R94   R(83,86)                1.5176         estimate D2E/DX2                !
 ! R95   R(86,87)                1.099          estimate D2E/DX2                !
 ! R96   R(86,88)                1.099          estimate D2E/DX2                !
 ! R97   R(86,89)                1.4137         estimate D2E/DX2                !
 ! R98   R(89,90)                1.4173         estimate D2E/DX2                !
 ! R99   R(90,91)                1.0987         estimate D2E/DX2                !
 ! R100  R(90,92)                1.0987         estimate D2E/DX2                !
 ! R101  R(90,93)                1.519          estimate D2E/DX2                !
 ! R102  R(93,94)                1.0999         estimate D2E/DX2                !
 ! R103  R(93,95)                1.0999         estimate D2E/DX2                !
 ! R104  R(93,96)                1.4139         estimate D2E/DX2                !
 ! R105  R(96,97)                1.4162         estimate D2E/DX2                !
 ! R106  R(97,98)                1.098          estimate D2E/DX2                !
 ! R107  R(97,99)                1.0995         estimate D2E/DX2                !
 ! R108  R(97,100)               1.5179         estimate D2E/DX2                !
 ! R109  R(100,101)              1.0993         estimate D2E/DX2                !
 ! R110  R(100,102)              1.1001         estimate D2E/DX2                !
 ! R111  R(100,103)              1.4151         estimate D2E/DX2                !
 ! R112  R(103,104)              1.4126         estimate D2E/DX2                !
 ! R113  R(104,105)              1.1            estimate D2E/DX2                !
 ! R114  R(104,106)              1.0901         estimate D2E/DX2                !
 ! R115  R(104,107)              1.1008         estimate D2E/DX2                !
 ! R116  R(108,109)              1.0953         estimate D2E/DX2                !
 ! R117  R(108,110)              1.0961         estimate D2E/DX2                !
 ! R118  R(108,111)              1.5177         estimate D2E/DX2                !
 ! R119  R(111,112)              1.0989         estimate D2E/DX2                !
 ! R120  R(111,113)              1.0989         estimate D2E/DX2                !
 ! R121  R(111,114)              1.4147         estimate D2E/DX2                !
 ! R122  R(114,115)              1.4177         estimate D2E/DX2                !
 ! R123  R(115,116)              1.0992         estimate D2E/DX2                !
 ! R124  R(115,117)              1.0992         estimate D2E/DX2                !
 ! R125  R(115,118)              1.5181         estimate D2E/DX2                !
 ! R126  R(118,119)              1.0998         estimate D2E/DX2                !
 ! R127  R(118,120)              1.0998         estimate D2E/DX2                !
 ! R128  R(118,121)              1.4136         estimate D2E/DX2                !
 ! R129  R(121,122)              1.4168         estimate D2E/DX2                !
 ! R130  R(122,123)              1.0985         estimate D2E/DX2                !
 ! R131  R(122,124)              1.0994         estimate D2E/DX2                !
 ! R132  R(122,125)              1.5182         estimate D2E/DX2                !
 ! R133  R(125,126)              1.0992         estimate D2E/DX2                !
 ! R134  R(125,127)              1.1            estimate D2E/DX2                !
 ! R135  R(125,128)              1.4147         estimate D2E/DX2                !
 ! R136  R(128,129)              1.4119         estimate D2E/DX2                !
 ! R137  R(129,130)              1.0997         estimate D2E/DX2                !
 ! R138  R(129,131)              1.0912         estimate D2E/DX2                !
 ! R139  R(129,132)              1.1005         estimate D2E/DX2                !
 ! A1    A(2,1,5)              108.8587         estimate D2E/DX2                !
 ! A2    A(2,1,8)              129.0662         estimate D2E/DX2                !
 ! A3    A(5,1,8)              122.0751         estimate D2E/DX2                !
 ! A4    A(1,2,3)              116.0385         estimate D2E/DX2                !
 ! A5    A(1,2,6)              118.4499         estimate D2E/DX2                !
 ! A6    A(3,2,6)              125.5116         estimate D2E/DX2                !
 ! A7    A(2,3,4)              114.4719         estimate D2E/DX2                !
 ! A8    A(2,3,7)              123.4106         estimate D2E/DX2                !
 ! A9    A(4,3,7)              122.1176         estimate D2E/DX2                !
 ! A10   A(3,4,5)              110.3201         estimate D2E/DX2                !
 ! A11   A(3,4,75)             129.375          estimate D2E/DX2                !
 ! A12   A(5,4,75)             120.3048         estimate D2E/DX2                !
 ! A13   A(1,5,4)               90.3109         estimate D2E/DX2                !
 ! A14   A(2,6,108)            105.7757         estimate D2E/DX2                !
 ! A15   A(1,8,9)              129.0845         estimate D2E/DX2                !
 ! A16   A(1,8,12)             122.0531         estimate D2E/DX2                !
 ! A17   A(9,8,12)             108.8623         estimate D2E/DX2                !
 ! A18   A(8,9,10)             116.0568         estimate D2E/DX2                !
 ! A19   A(8,9,13)             118.4316         estimate D2E/DX2                !
 ! A20   A(10,9,13)            125.5116         estimate D2E/DX2                !
 ! A21   A(9,10,11)            114.4339         estimate D2E/DX2                !
 ! A22   A(9,10,14)            123.4547         estimate D2E/DX2                !
 ! A23   A(11,10,14)           122.1114         estimate D2E/DX2                !
 ! A24   A(10,11,12)           110.38           estimate D2E/DX2                !
 ! A25   A(10,11,22)           129.3548         estimate D2E/DX2                !
 ! A26   A(12,11,22)           120.2652         estimate D2E/DX2                !
 ! A27   A(8,12,11)             90.2669         estimate D2E/DX2                !
 ! A28   A(9,13,15)            118.7405         estimate D2E/DX2                !
 ! A29   A(13,15,16)           105.1143         estimate D2E/DX2                !
 ! A30   A(13,15,17)           111.0247         estimate D2E/DX2                !
 ! A31   A(13,15,18)           111.0082         estimate D2E/DX2                !
 ! A32   A(16,15,17)           109.7935         estimate D2E/DX2                !
 ! A33   A(16,15,18)           109.7781         estimate D2E/DX2                !
 ! A34   A(17,15,18)           110.0142         estimate D2E/DX2                !
 ! A35   A(20,19,23)           108.952          estimate D2E/DX2                !
 ! A36   A(20,19,26)           129.1642         estimate D2E/DX2                !
 ! A37   A(23,19,26)           121.8838         estimate D2E/DX2                !
 ! A38   A(19,20,21)           116.0266         estimate D2E/DX2                !
 ! A39   A(19,20,24)           118.5668         estimate D2E/DX2                !
 ! A40   A(21,20,24)           125.4066         estimate D2E/DX2                !
 ! A41   A(20,21,22)           114.4246         estimate D2E/DX2                !
 ! A42   A(20,21,25)           123.4182         estimate D2E/DX2                !
 ! A43   A(22,21,25)           122.1572         estimate D2E/DX2                !
 ! A44   A(11,22,21)           129.4268         estimate D2E/DX2                !
 ! A45   A(11,22,23)           120.2652         estimate D2E/DX2                !
 ! A46   A(21,22,23)           110.308          estimate D2E/DX2                !
 ! A47   A(19,23,22)            90.2887         estimate D2E/DX2                !
 ! A48   A(20,24,33)           118.8351         estimate D2E/DX2                !
 ! A49   A(19,26,27)           129.0346         estimate D2E/DX2                !
 ! A50   A(19,26,30)           122.0607         estimate D2E/DX2                !
 ! A51   A(27,26,30)           108.9047         estimate D2E/DX2                !
 ! A52   A(26,27,28)           115.5785         estimate D2E/DX2                !
 ! A53   A(26,27,31)           118.8686         estimate D2E/DX2                !
 ! A54   A(28,27,31)           125.5529         estimate D2E/DX2                !
 ! A55   A(27,28,29)           113.3006         estimate D2E/DX2                !
 ! A56   A(27,28,32)           123.7479         estimate D2E/DX2                !
 ! A57   A(29,28,32)           122.9515         estimate D2E/DX2                !
 ! A58   A(28,29,30)           112.3505         estimate D2E/DX2                !
 ! A59   A(28,29,41)           128.6119         estimate D2E/DX2                !
 ! A60   A(30,29,41)           119.0377         estimate D2E/DX2                !
 ! A61   A(26,30,29)            89.8657         estimate D2E/DX2                !
 ! A62   A(27,31,37)           118.7781         estimate D2E/DX2                !
 ! A63   A(24,33,34)           111.0222         estimate D2E/DX2                !
 ! A64   A(24,33,35)           111.0222         estimate D2E/DX2                !
 ! A65   A(24,33,36)           105.1106         estimate D2E/DX2                !
 ! A66   A(34,33,35)           110.0254         estimate D2E/DX2                !
 ! A67   A(34,33,36)           109.7757         estimate D2E/DX2                !
 ! A68   A(35,33,36)           109.7757         estimate D2E/DX2                !
 ! A69   A(31,37,38)           105.1449         estimate D2E/DX2                !
 ! A70   A(31,37,39)           111.084          estimate D2E/DX2                !
 ! A71   A(31,37,40)           111.084          estimate D2E/DX2                !
 ! A72   A(38,37,39)           109.6851         estimate D2E/DX2                !
 ! A73   A(38,37,40)           109.6851         estimate D2E/DX2                !
 ! A74   A(39,37,40)           110.0442         estimate D2E/DX2                !
 ! A75   A(43,42,46)           108.9047         estimate D2E/DX2                !
 ! A76   A(43,42,49)           129.0346         estimate D2E/DX2                !
 ! A77   A(46,42,49)           122.0607         estimate D2E/DX2                !
 ! A78   A(42,43,44)           115.5785         estimate D2E/DX2                !
 ! A79   A(42,43,47)           118.8686         estimate D2E/DX2                !
 ! A80   A(44,43,47)           125.5529         estimate D2E/DX2                !
 ! A81   A(43,44,45)           113.3006         estimate D2E/DX2                !
 ! A82   A(43,44,48)           123.7479         estimate D2E/DX2                !
 ! A83   A(45,44,48)           122.9515         estimate D2E/DX2                !
 ! A84   A(44,45,46)           112.3505         estimate D2E/DX2                !
 ! A85   A(44,45,64)           128.6119         estimate D2E/DX2                !
 ! A86   A(46,45,64)           119.0377         estimate D2E/DX2                !
 ! A87   A(42,46,45)            89.8657         estimate D2E/DX2                !
 ! A88   A(43,47,56)           118.7781         estimate D2E/DX2                !
 ! A89   A(42,49,50)           129.1642         estimate D2E/DX2                !
 ! A90   A(42,49,53)           121.8838         estimate D2E/DX2                !
 ! A91   A(50,49,53)           108.952          estimate D2E/DX2                !
 ! A92   A(49,50,51)           116.0266         estimate D2E/DX2                !
 ! A93   A(49,50,54)           118.5668         estimate D2E/DX2                !
 ! A94   A(51,50,54)           125.4066         estimate D2E/DX2                !
 ! A95   A(50,51,52)           114.4246         estimate D2E/DX2                !
 ! A96   A(50,51,55)           123.4182         estimate D2E/DX2                !
 ! A97   A(52,51,55)           122.1572         estimate D2E/DX2                !
 ! A98   A(51,52,53)           110.308          estimate D2E/DX2                !
 ! A99   A(51,52,68)           129.4268         estimate D2E/DX2                !
 ! A100  A(53,52,68)           120.2652         estimate D2E/DX2                !
 ! A101  A(49,53,52)            90.2887         estimate D2E/DX2                !
 ! A102  A(50,54,60)           118.8351         estimate D2E/DX2                !
 ! A103  A(47,56,57)           111.084          estimate D2E/DX2                !
 ! A104  A(47,56,58)           111.084          estimate D2E/DX2                !
 ! A105  A(47,56,59)           105.1449         estimate D2E/DX2                !
 ! A106  A(57,56,58)           110.0442         estimate D2E/DX2                !
 ! A107  A(57,56,59)           109.6851         estimate D2E/DX2                !
 ! A108  A(58,56,59)           109.6851         estimate D2E/DX2                !
 ! A109  A(54,60,61)           105.1106         estimate D2E/DX2                !
 ! A110  A(54,60,62)           111.0222         estimate D2E/DX2                !
 ! A111  A(54,60,63)           111.0222         estimate D2E/DX2                !
 ! A112  A(61,60,62)           109.7757         estimate D2E/DX2                !
 ! A113  A(61,60,63)           109.7757         estimate D2E/DX2                !
 ! A114  A(62,60,63)           110.0254         estimate D2E/DX2                !
 ! A115  A(66,65,69)           108.8623         estimate D2E/DX2                !
 ! A116  A(66,65,72)           129.0845         estimate D2E/DX2                !
 ! A117  A(69,65,72)           122.0531         estimate D2E/DX2                !
 ! A118  A(65,66,67)           116.0568         estimate D2E/DX2                !
 ! A119  A(65,66,70)           118.4316         estimate D2E/DX2                !
 ! A120  A(67,66,70)           125.5116         estimate D2E/DX2                !
 ! A121  A(66,67,68)           114.4339         estimate D2E/DX2                !
 ! A122  A(66,67,71)           123.4547         estimate D2E/DX2                !
 ! A123  A(68,67,71)           122.1114         estimate D2E/DX2                !
 ! A124  A(52,68,67)           129.3548         estimate D2E/DX2                !
 ! A125  A(52,68,69)           120.2652         estimate D2E/DX2                !
 ! A126  A(67,68,69)           110.38           estimate D2E/DX2                !
 ! A127  A(65,69,68)            90.2669         estimate D2E/DX2                !
 ! A128  A(66,70,79)           118.7405         estimate D2E/DX2                !
 ! A129  A(65,72,73)           129.0662         estimate D2E/DX2                !
 ! A130  A(65,72,76)           122.0751         estimate D2E/DX2                !
 ! A131  A(73,72,76)           108.8587         estimate D2E/DX2                !
 ! A132  A(72,73,74)           116.0385         estimate D2E/DX2                !
 ! A133  A(72,73,77)           118.4499         estimate D2E/DX2                !
 ! A134  A(74,73,77)           125.5116         estimate D2E/DX2                !
 ! A135  A(73,74,75)           114.4719         estimate D2E/DX2                !
 ! A136  A(73,74,78)           123.4106         estimate D2E/DX2                !
 ! A137  A(75,74,78)           122.1176         estimate D2E/DX2                !
 ! A138  A(4,75,74)            129.375          estimate D2E/DX2                !
 ! A139  A(4,75,76)            120.3048         estimate D2E/DX2                !
 ! A140  A(74,75,76)           110.3201         estimate D2E/DX2                !
 ! A141  A(72,76,75)            90.3109         estimate D2E/DX2                !
 ! A142  A(73,77,83)            97.891          estimate D2E/DX2                !
 ! A143  A(70,79,80)           111.0082         estimate D2E/DX2                !
 ! A144  A(70,79,81)           111.0082         estimate D2E/DX2                !
 ! A145  A(70,79,82)           105.1143         estimate D2E/DX2                !
 ! A146  A(80,79,81)           110.0442         estimate D2E/DX2                !
 ! A147  A(80,79,82)           109.7781         estimate D2E/DX2                !
 ! A148  A(81,79,82)           109.7781         estimate D2E/DX2                !
 ! A149  A(77,83,84)           125.5783         estimate D2E/DX2                !
 ! A150  A(77,83,85)           125.5479         estimate D2E/DX2                !
 ! A151  A(77,83,86)            93.1041         estimate D2E/DX2                !
 ! A152  A(84,83,85)           108.8365         estimate D2E/DX2                !
 ! A153  A(84,83,86)            87.1882         estimate D2E/DX2                !
 ! A154  A(85,83,86)            87.1902         estimate D2E/DX2                !
 ! A155  A(83,86,87)           109.8465         estimate D2E/DX2                !
 ! A156  A(83,86,88)           109.8465         estimate D2E/DX2                !
 ! A157  A(83,86,89)           106.8298         estimate D2E/DX2                !
 ! A158  A(87,86,88)           107.9763         estimate D2E/DX2                !
 ! A159  A(87,86,89)           111.1722         estimate D2E/DX2                !
 ! A160  A(88,86,89)           111.1722         estimate D2E/DX2                !
 ! A161  A(86,89,90)           113.462          estimate D2E/DX2                !
 ! A162  A(89,90,91)           110.9248         estimate D2E/DX2                !
 ! A163  A(89,90,92)           110.9248         estimate D2E/DX2                !
 ! A164  A(89,90,93)           107.5088         estimate D2E/DX2                !
 ! A165  A(91,90,92)           108.0216         estimate D2E/DX2                !
 ! A166  A(91,90,93)           109.7297         estimate D2E/DX2                !
 ! A167  A(92,90,93)           109.7297         estimate D2E/DX2                !
 ! A168  A(90,93,94)           109.7339         estimate D2E/DX2                !
 ! A169  A(90,93,95)           109.7339         estimate D2E/DX2                !
 ! A170  A(90,93,96)           107.4197         estimate D2E/DX2                !
 ! A171  A(94,93,95)           107.8473         estimate D2E/DX2                !
 ! A172  A(94,93,96)           111.0531         estimate D2E/DX2                !
 ! A173  A(95,93,96)           111.0531         estimate D2E/DX2                !
 ! A174  A(93,96,97)           113.4394         estimate D2E/DX2                !
 ! A175  A(96,97,98)           110.9719         estimate D2E/DX2                !
 ! A176  A(96,97,99)           111.0204         estimate D2E/DX2                !
 ! A177  A(96,97,100)          107.5922         estimate D2E/DX2                !
 ! A178  A(98,97,99)           107.927          estimate D2E/DX2                !
 ! A179  A(98,97,100)          109.6801         estimate D2E/DX2                !
 ! A180  A(99,97,100)          109.6454         estimate D2E/DX2                !
 ! A181  A(97,100,101)         109.6846         estimate D2E/DX2                !
 ! A182  A(97,100,102)         109.6695         estimate D2E/DX2                !
 ! A183  A(97,100,103)         107.514          estimate D2E/DX2                !
 ! A184  A(101,100,102)        107.7977         estimate D2E/DX2                !
 ! A185  A(101,100,103)        111.0944         estimate D2E/DX2                !
 ! A186  A(102,100,103)        111.0782         estimate D2E/DX2                !
 ! A187  A(100,103,104)        112.934          estimate D2E/DX2                !
 ! A188  A(103,104,105)        111.621          estimate D2E/DX2                !
 ! A189  A(103,104,106)        107.2105         estimate D2E/DX2                !
 ! A190  A(103,104,107)        111.6042         estimate D2E/DX2                !
 ! A191  A(105,104,106)        108.9758         estimate D2E/DX2                !
 ! A192  A(105,104,107)        108.4061         estimate D2E/DX2                !
 ! A193  A(106,104,107)        108.9613         estimate D2E/DX2                !
 ! A194  A(6,108,109)           98.1733         estimate D2E/DX2                !
 ! A195  A(6,108,110)           98.1672         estimate D2E/DX2                !
 ! A196  A(6,108,111)           99.1953         estimate D2E/DX2                !
 ! A197  A(109,108,110)        108.7233         estimate D2E/DX2                !
 ! A198  A(109,108,111)        122.3641         estimate D2E/DX2                !
 ! A199  A(110,108,111)        122.3371         estimate D2E/DX2                !
 ! A200  A(108,111,112)        109.894          estimate D2E/DX2                !
 ! A201  A(108,111,113)        109.894          estimate D2E/DX2                !
 ! A202  A(108,111,114)        106.7887         estimate D2E/DX2                !
 ! A203  A(112,111,113)        107.9892         estimate D2E/DX2                !
 ! A204  A(112,111,114)        111.1398         estimate D2E/DX2                !
 ! A205  A(113,111,114)        111.1398         estimate D2E/DX2                !
 ! A206  A(111,114,115)        113.4656         estimate D2E/DX2                !
 ! A207  A(114,115,116)        110.9284         estimate D2E/DX2                !
 ! A208  A(114,115,117)        110.9284         estimate D2E/DX2                !
 ! A209  A(114,115,118)        107.5103         estimate D2E/DX2                !
 ! A210  A(116,115,117)        107.9471         estimate D2E/DX2                !
 ! A211  A(116,115,118)        109.7636         estimate D2E/DX2                !
 ! A212  A(117,115,118)        109.7636         estimate D2E/DX2                !
 ! A213  A(115,118,119)        109.7418         estimate D2E/DX2                !
 ! A214  A(115,118,120)        109.7418         estimate D2E/DX2                !
 ! A215  A(115,118,121)        107.3938         estimate D2E/DX2                !
 ! A216  A(119,118,120)        107.8595         estimate D2E/DX2                !
 ! A217  A(119,118,121)        111.0522         estimate D2E/DX2                !
 ! A218  A(120,118,121)        111.0522         estimate D2E/DX2                !
 ! A219  A(118,121,122)        113.4469         estimate D2E/DX2                !
 ! A220  A(121,122,123)        110.9854         estimate D2E/DX2                !
 ! A221  A(121,122,124)        111.0156         estimate D2E/DX2                !
 ! A222  A(121,122,125)        107.6073         estimate D2E/DX2                !
 ! A223  A(123,122,124)        107.8977         estimate D2E/DX2                !
 ! A224  A(123,122,125)        109.6946         estimate D2E/DX2                !
 ! A225  A(124,122,125)        109.6366         estimate D2E/DX2                !
 ! A226  A(122,125,126)        109.6771         estimate D2E/DX2                !
 ! A227  A(122,125,127)        109.6621         estimate D2E/DX2                !
 ! A228  A(122,125,128)        107.5095         estimate D2E/DX2                !
 ! A229  A(126,125,127)        107.8094         estimate D2E/DX2                !
 ! A230  A(126,125,128)        111.0981         estimate D2E/DX2                !
 ! A231  A(127,125,128)        111.0818         estimate D2E/DX2                !
 ! A232  A(125,128,129)        112.9533         estimate D2E/DX2                !
 ! A233  A(128,129,130)        111.5909         estimate D2E/DX2                !
 ! A234  A(128,129,131)        107.1798         estimate D2E/DX2                !
 ! A235  A(128,129,132)        111.5742         estimate D2E/DX2                !
 ! A236  A(130,129,131)        109.0011         estimate D2E/DX2                !
 ! A237  A(130,129,132)        108.4479         estimate D2E/DX2                !
 ! A238  A(131,129,132)        108.9866         estimate D2E/DX2                !
 ! D1    D(5,1,2,3)              0.0            estimate D2E/DX2                !
 ! D2    D(5,1,2,6)            180.0            estimate D2E/DX2                !
 ! D3    D(8,1,2,3)            180.0            estimate D2E/DX2                !
 ! D4    D(8,1,2,6)              0.0            estimate D2E/DX2                !
 ! D5    D(2,1,5,4)              0.0            estimate D2E/DX2                !
 ! D6    D(8,1,5,4)            180.0            estimate D2E/DX2                !
 ! D7    D(2,1,8,9)            180.0            estimate D2E/DX2                !
 ! D8    D(2,1,8,12)             0.0            estimate D2E/DX2                !
 ! D9    D(5,1,8,9)              0.0            estimate D2E/DX2                !
 ! D10   D(5,1,8,12)           180.0            estimate D2E/DX2                !
 ! D11   D(1,2,3,4)              0.0            estimate D2E/DX2                !
 ! D12   D(1,2,3,7)            180.0            estimate D2E/DX2                !
 ! D13   D(6,2,3,4)            180.0            estimate D2E/DX2                !
 ! D14   D(6,2,3,7)              0.0            estimate D2E/DX2                !
 ! D15   D(1,2,6,108)          180.0            estimate D2E/DX2                !
 ! D16   D(3,2,6,108)            0.0            estimate D2E/DX2                !
 ! D17   D(2,3,4,5)              0.0            estimate D2E/DX2                !
 ! D18   D(2,3,4,75)           180.0            estimate D2E/DX2                !
 ! D19   D(7,3,4,5)            180.0            estimate D2E/DX2                !
 ! D20   D(7,3,4,75)             0.0            estimate D2E/DX2                !
 ! D21   D(3,4,5,1)              0.0            estimate D2E/DX2                !
 ! D22   D(75,4,5,1)           180.0            estimate D2E/DX2                !
 ! D23   D(3,4,75,74)          180.0            estimate D2E/DX2                !
 ! D24   D(3,4,75,76)            0.0            estimate D2E/DX2                !
 ! D25   D(5,4,75,74)            0.0            estimate D2E/DX2                !
 ! D26   D(5,4,75,76)          180.0            estimate D2E/DX2                !
 ! D27   D(2,6,108,109)         55.1744         estimate D2E/DX2                !
 ! D28   D(2,6,108,110)        -55.2046         estimate D2E/DX2                !
 ! D29   D(2,6,108,111)        180.0            estimate D2E/DX2                !
 ! D30   D(1,8,9,10)           180.0            estimate D2E/DX2                !
 ! D31   D(1,8,9,13)             0.0            estimate D2E/DX2                !
 ! D32   D(12,8,9,10)            0.0            estimate D2E/DX2                !
 ! D33   D(12,8,9,13)          180.0            estimate D2E/DX2                !
 ! D34   D(1,8,12,11)          180.0            estimate D2E/DX2                !
 ! D35   D(9,8,12,11)            0.0            estimate D2E/DX2                !
 ! D36   D(8,9,10,11)            0.0            estimate D2E/DX2                !
 ! D37   D(8,9,10,14)          180.0            estimate D2E/DX2                !
 ! D38   D(13,9,10,11)         180.0            estimate D2E/DX2                !
 ! D39   D(13,9,10,14)           0.0            estimate D2E/DX2                !
 ! D40   D(8,9,13,15)          180.0            estimate D2E/DX2                !
 ! D41   D(10,9,13,15)           0.0            estimate D2E/DX2                !
 ! D42   D(9,10,11,12)           0.0            estimate D2E/DX2                !
 ! D43   D(9,10,11,22)         180.0            estimate D2E/DX2                !
 ! D44   D(14,10,11,12)        180.0            estimate D2E/DX2                !
 ! D45   D(14,10,11,22)          0.0            estimate D2E/DX2                !
 ! D46   D(10,11,12,8)           0.0            estimate D2E/DX2                !
 ! D47   D(22,11,12,8)         180.0            estimate D2E/DX2                !
 ! D48   D(10,11,22,21)        180.0            estimate D2E/DX2                !
 ! D49   D(10,11,22,23)          0.0            estimate D2E/DX2                !
 ! D50   D(12,11,22,21)          0.0            estimate D2E/DX2                !
 ! D51   D(12,11,22,23)        180.0            estimate D2E/DX2                !
 ! D52   D(9,13,15,16)         180.0            estimate D2E/DX2                !
 ! D53   D(9,13,15,17)         -61.3411         estimate D2E/DX2                !
 ! D54   D(9,13,15,18)          61.3681         estimate D2E/DX2                !
 ! D55   D(23,19,20,21)          0.0            estimate D2E/DX2                !
 ! D56   D(23,19,20,24)        180.0            estimate D2E/DX2                !
 ! D57   D(26,19,20,21)        180.0            estimate D2E/DX2                !
 ! D58   D(26,19,20,24)          0.0            estimate D2E/DX2                !
 ! D59   D(20,19,23,22)          0.0            estimate D2E/DX2                !
 ! D60   D(26,19,23,22)        180.0            estimate D2E/DX2                !
 ! D61   D(20,19,26,27)        180.0            estimate D2E/DX2                !
 ! D62   D(20,19,26,30)          0.0            estimate D2E/DX2                !
 ! D63   D(23,19,26,27)          0.0            estimate D2E/DX2                !
 ! D64   D(23,19,26,30)        180.0            estimate D2E/DX2                !
 ! D65   D(19,20,21,22)          0.0            estimate D2E/DX2                !
 ! D66   D(19,20,21,25)        180.0            estimate D2E/DX2                !
 ! D67   D(24,20,21,22)        180.0            estimate D2E/DX2                !
 ! D68   D(24,20,21,25)          0.0            estimate D2E/DX2                !
 ! D69   D(19,20,24,33)        180.0            estimate D2E/DX2                !
 ! D70   D(21,20,24,33)          0.0            estimate D2E/DX2                !
 ! D71   D(20,21,22,11)        180.0            estimate D2E/DX2                !
 ! D72   D(20,21,22,23)          0.0            estimate D2E/DX2                !
 ! D73   D(25,21,22,11)          0.0            estimate D2E/DX2                !
 ! D74   D(25,21,22,23)        180.0            estimate D2E/DX2                !
 ! D75   D(11,22,23,19)        180.0            estimate D2E/DX2                !
 ! D76   D(21,22,23,19)          0.0            estimate D2E/DX2                !
 ! D77   D(20,24,33,34)         61.3658         estimate D2E/DX2                !
 ! D78   D(20,24,33,35)        -61.3658         estimate D2E/DX2                !
 ! D79   D(20,24,33,36)        180.0            estimate D2E/DX2                !
 ! D80   D(19,26,27,28)        180.0            estimate D2E/DX2                !
 ! D81   D(19,26,27,31)          0.0            estimate D2E/DX2                !
 ! D82   D(30,26,27,28)          0.0            estimate D2E/DX2                !
 ! D83   D(30,26,27,31)        180.0            estimate D2E/DX2                !
 ! D84   D(19,26,30,29)        180.0            estimate D2E/DX2                !
 ! D85   D(27,26,30,29)          0.0            estimate D2E/DX2                !
 ! D86   D(26,27,28,29)          0.0            estimate D2E/DX2                !
 ! D87   D(26,27,28,32)        180.0            estimate D2E/DX2                !
 ! D88   D(31,27,28,29)        180.0            estimate D2E/DX2                !
 ! D89   D(31,27,28,32)          0.0            estimate D2E/DX2                !
 ! D90   D(26,27,31,37)        180.0            estimate D2E/DX2                !
 ! D91   D(28,27,31,37)          0.0            estimate D2E/DX2                !
 ! D92   D(27,28,29,30)          0.0            estimate D2E/DX2                !
 ! D93   D(27,28,29,41)        180.0            estimate D2E/DX2                !
 ! D94   D(32,28,29,30)        180.0            estimate D2E/DX2                !
 ! D95   D(32,28,29,41)          0.0            estimate D2E/DX2                !
 ! D96   D(28,29,30,26)          0.0            estimate D2E/DX2                !
 ! D97   D(41,29,30,26)        180.0            estimate D2E/DX2                !
 ! D98   D(27,31,37,38)        180.0            estimate D2E/DX2                !
 ! D99   D(27,31,37,39)        -61.4215         estimate D2E/DX2                !
 ! D100  D(27,31,37,40)         61.4215         estimate D2E/DX2                !
 ! D101  D(46,42,43,44)          0.0            estimate D2E/DX2                !
 ! D102  D(46,42,43,47)        180.0            estimate D2E/DX2                !
 ! D103  D(49,42,43,44)        180.0            estimate D2E/DX2                !
 ! D104  D(49,42,43,47)          0.0            estimate D2E/DX2                !
 ! D105  D(43,42,46,45)          0.0            estimate D2E/DX2                !
 ! D106  D(49,42,46,45)        180.0            estimate D2E/DX2                !
 ! D107  D(43,42,49,50)        180.0            estimate D2E/DX2                !
 ! D108  D(43,42,49,53)          0.0            estimate D2E/DX2                !
 ! D109  D(46,42,49,50)          0.0            estimate D2E/DX2                !
 ! D110  D(46,42,49,53)        180.0            estimate D2E/DX2                !
 ! D111  D(42,43,44,45)          0.0            estimate D2E/DX2                !
 ! D112  D(42,43,44,48)        180.0            estimate D2E/DX2                !
 ! D113  D(47,43,44,45)        180.0            estimate D2E/DX2                !
 ! D114  D(47,43,44,48)          0.0            estimate D2E/DX2                !
 ! D115  D(42,43,47,56)        180.0            estimate D2E/DX2                !
 ! D116  D(44,43,47,56)          0.0            estimate D2E/DX2                !
 ! D117  D(43,44,45,46)          0.0            estimate D2E/DX2                !
 ! D118  D(43,44,45,64)        180.0            estimate D2E/DX2                !
 ! D119  D(48,44,45,46)        180.0            estimate D2E/DX2                !
 ! D120  D(48,44,45,64)          0.0            estimate D2E/DX2                !
 ! D121  D(44,45,46,42)          0.0            estimate D2E/DX2                !
 ! D122  D(64,45,46,42)        180.0            estimate D2E/DX2                !
 ! D123  D(43,47,56,57)         61.4215         estimate D2E/DX2                !
 ! D124  D(43,47,56,58)        -61.4215         estimate D2E/DX2                !
 ! D125  D(43,47,56,59)        180.0            estimate D2E/DX2                !
 ! D126  D(42,49,50,51)        180.0            estimate D2E/DX2                !
 ! D127  D(42,49,50,54)          0.0            estimate D2E/DX2                !
 ! D128  D(53,49,50,51)          0.0            estimate D2E/DX2                !
 ! D129  D(53,49,50,54)        180.0            estimate D2E/DX2                !
 ! D130  D(42,49,53,52)        180.0            estimate D2E/DX2                !
 ! D131  D(50,49,53,52)          0.0            estimate D2E/DX2                !
 ! D132  D(49,50,51,52)          0.0            estimate D2E/DX2                !
 ! D133  D(49,50,51,55)        180.0            estimate D2E/DX2                !
 ! D134  D(54,50,51,52)        180.0            estimate D2E/DX2                !
 ! D135  D(54,50,51,55)          0.0            estimate D2E/DX2                !
 ! D136  D(49,50,54,60)        180.0            estimate D2E/DX2                !
 ! D137  D(51,50,54,60)          0.0            estimate D2E/DX2                !
 ! D138  D(50,51,52,53)          0.0            estimate D2E/DX2                !
 ! D139  D(50,51,52,68)        180.0            estimate D2E/DX2                !
 ! D140  D(55,51,52,53)        180.0            estimate D2E/DX2                !
 ! D141  D(55,51,52,68)          0.0            estimate D2E/DX2                !
 ! D142  D(51,52,53,49)          0.0            estimate D2E/DX2                !
 ! D143  D(68,52,53,49)        180.0            estimate D2E/DX2                !
 ! D144  D(51,52,68,67)        180.0            estimate D2E/DX2                !
 ! D145  D(51,52,68,69)          0.0            estimate D2E/DX2                !
 ! D146  D(53,52,68,67)          0.0            estimate D2E/DX2                !
 ! D147  D(53,52,68,69)        180.0            estimate D2E/DX2                !
 ! D148  D(50,54,60,61)        180.0            estimate D2E/DX2                !
 ! D149  D(50,54,60,62)        -61.3658         estimate D2E/DX2                !
 ! D150  D(50,54,60,63)         61.3658         estimate D2E/DX2                !
 ! D151  D(69,65,66,67)          0.0            estimate D2E/DX2                !
 ! D152  D(69,65,66,70)        180.0            estimate D2E/DX2                !
 ! D153  D(72,65,66,67)        180.0            estimate D2E/DX2                !
 ! D154  D(72,65,66,70)          0.0            estimate D2E/DX2                !
 ! D155  D(66,65,69,68)          0.0            estimate D2E/DX2                !
 ! D156  D(72,65,69,68)        180.0            estimate D2E/DX2                !
 ! D157  D(66,65,72,73)        180.0            estimate D2E/DX2                !
 ! D158  D(66,65,72,76)          0.0            estimate D2E/DX2                !
 ! D159  D(69,65,72,73)          0.0            estimate D2E/DX2                !
 ! D160  D(69,65,72,76)        180.0            estimate D2E/DX2                !
 ! D161  D(65,66,67,68)          0.0            estimate D2E/DX2                !
 ! D162  D(65,66,67,71)        180.0            estimate D2E/DX2                !
 ! D163  D(70,66,67,68)        180.0            estimate D2E/DX2                !
 ! D164  D(70,66,67,71)          0.0            estimate D2E/DX2                !
 ! D165  D(65,66,70,79)        180.0            estimate D2E/DX2                !
 ! D166  D(67,66,70,79)          0.0            estimate D2E/DX2                !
 ! D167  D(66,67,68,52)        180.0            estimate D2E/DX2                !
 ! D168  D(66,67,68,69)          0.0            estimate D2E/DX2                !
 ! D169  D(71,67,68,52)          0.0            estimate D2E/DX2                !
 ! D170  D(71,67,68,69)        180.0            estimate D2E/DX2                !
 ! D171  D(52,68,69,65)        180.0            estimate D2E/DX2                !
 ! D172  D(67,68,69,65)          0.0            estimate D2E/DX2                !
 ! D173  D(66,70,79,80)         61.3681         estimate D2E/DX2                !
 ! D174  D(66,70,79,81)        -61.3681         estimate D2E/DX2                !
 ! D175  D(66,70,79,82)        180.0            estimate D2E/DX2                !
 ! D176  D(65,72,73,74)        180.0            estimate D2E/DX2                !
 ! D177  D(65,72,73,77)          0.0            estimate D2E/DX2                !
 ! D178  D(76,72,73,74)          0.0            estimate D2E/DX2                !
 ! D179  D(76,72,73,77)        180.0            estimate D2E/DX2                !
 ! D180  D(65,72,76,75)        180.0            estimate D2E/DX2                !
 ! D181  D(73,72,76,75)          0.0            estimate D2E/DX2                !
 ! D182  D(72,73,74,75)          0.0            estimate D2E/DX2                !
 ! D183  D(72,73,74,78)        180.0            estimate D2E/DX2                !
 ! D184  D(77,73,74,75)        180.0            estimate D2E/DX2                !
 ! D185  D(77,73,74,78)          0.0            estimate D2E/DX2                !
 ! D186  D(72,73,77,83)        180.0            estimate D2E/DX2                !
 ! D187  D(74,73,77,83)          0.0            estimate D2E/DX2                !
 ! D188  D(73,74,75,4)         180.0            estimate D2E/DX2                !
 ! D189  D(73,74,75,76)          0.0            estimate D2E/DX2                !
 ! D190  D(78,74,75,4)           0.0            estimate D2E/DX2                !
 ! D191  D(78,74,75,76)        180.0            estimate D2E/DX2                !
 ! D192  D(4,75,76,72)         180.0            estimate D2E/DX2                !
 ! D193  D(74,75,76,72)          0.0            estimate D2E/DX2                !
 ! D194  D(73,77,83,84)         91.2383         estimate D2E/DX2                !
 ! D195  D(73,77,83,85)        -91.2369         estimate D2E/DX2                !
 ! D196  D(73,77,83,86)        180.0            estimate D2E/DX2                !
 ! D197  D(77,83,86,87)        -59.3136         estimate D2E/DX2                !
 ! D198  D(77,83,86,88)         59.3136         estimate D2E/DX2                !
 ! D199  D(77,83,86,89)        180.0            estimate D2E/DX2                !
 ! D200  D(84,83,86,87)         66.1868         estimate D2E/DX2                !
 ! D201  D(84,83,86,88)       -175.186          estimate D2E/DX2                !
 ! D202  D(84,83,86,89)        -54.4996         estimate D2E/DX2                !
 ! D203  D(85,83,86,87)        175.2164         estimate D2E/DX2                !
 ! D204  D(85,83,86,88)        -66.1564         estimate D2E/DX2                !
 ! D205  D(85,83,86,89)         54.53           estimate D2E/DX2                !
 ! D206  D(83,86,89,90)        180.0            estimate D2E/DX2                !
 ! D207  D(87,86,89,90)         60.1635         estimate D2E/DX2                !
 ! D208  D(88,86,89,90)        -60.1635         estimate D2E/DX2                !
 ! D209  D(86,89,90,91)        -60.0266         estimate D2E/DX2                !
 ! D210  D(86,89,90,92)         60.0266         estimate D2E/DX2                !
 ! D211  D(86,89,90,93)        180.0            estimate D2E/DX2                !
 ! D212  D(89,90,93,94)         59.1667         estimate D2E/DX2                !
 ! D213  D(89,90,93,95)        -59.1667         estimate D2E/DX2                !
 ! D214  D(89,90,93,96)        180.0            estimate D2E/DX2                !
 ! D215  D(91,90,93,94)        -61.5629         estimate D2E/DX2                !
 ! D216  D(91,90,93,95)       -179.8962         estimate D2E/DX2                !
 ! D217  D(91,90,93,96)         59.2705         estimate D2E/DX2                !
 ! D218  D(92,90,93,94)        179.8962         estimate D2E/DX2                !
 ! D219  D(92,90,93,95)         61.5629         estimate D2E/DX2                !
 ! D220  D(92,90,93,96)        -59.2705         estimate D2E/DX2                !
 ! D221  D(90,93,96,97)        180.0            estimate D2E/DX2                !
 ! D222  D(94,93,96,97)        -60.0021         estimate D2E/DX2                !
 ! D223  D(95,93,96,97)         60.0021         estimate D2E/DX2                !
 ! D224  D(93,96,97,98)         60.0075         estimate D2E/DX2                !
 ! D225  D(93,96,97,99)        -60.0213         estimate D2E/DX2                !
 ! D226  D(93,96,97,100)       180.0            estimate D2E/DX2                !
 ! D227  D(96,97,100,101)       59.0881         estimate D2E/DX2                !
 ! D228  D(96,97,100,102)      -59.1165         estimate D2E/DX2                !
 ! D229  D(96,97,100,103)      180.0            estimate D2E/DX2                !
 ! D230  D(98,97,100,101)      179.8963         estimate D2E/DX2                !
 ! D231  D(98,97,100,102)       61.6916         estimate D2E/DX2                !
 ! D232  D(98,97,100,103)      -59.1918         estimate D2E/DX2                !
 ! D233  D(99,97,100,101)      -61.7586         estimate D2E/DX2                !
 ! D234  D(99,97,100,102)     -179.9632         estimate D2E/DX2                !
 ! D235  D(99,97,100,103)       59.1533         estimate D2E/DX2                !
 ! D236  D(97,100,103,104)     180.0            estimate D2E/DX2                !
 ! D237  D(101,100,103,104)    -59.979          estimate D2E/DX2                !
 ! D238  D(102,100,103,104)     60.0069         estimate D2E/DX2                !
 ! D239  D(100,103,104,105)     60.7287         estimate D2E/DX2                !
 ! D240  D(100,103,104,106)    180.0            estimate D2E/DX2                !
 ! D241  D(100,103,104,107)    -60.7561         estimate D2E/DX2                !
 ! D242  D(6,108,111,112)      -59.3504         estimate D2E/DX2                !
 ! D243  D(6,108,111,113)       59.3504         estimate D2E/DX2                !
 ! D244  D(6,108,111,114)      180.0            estimate D2E/DX2                !
 ! D245  D(109,108,111,112)     46.498          estimate D2E/DX2                !
 ! D246  D(109,108,111,113)    165.1988         estimate D2E/DX2                !
 ! D247  D(109,108,111,114)    -74.1516         estimate D2E/DX2                !
 ! D248  D(110,108,111,112)   -165.1819         estimate D2E/DX2                !
 ! D249  D(110,108,111,113)    -46.4811         estimate D2E/DX2                !
 ! D250  D(110,108,111,114)     74.1685         estimate D2E/DX2                !
 ! D251  D(108,111,114,115)    180.0            estimate D2E/DX2                !
 ! D252  D(112,111,114,115)     60.1498         estimate D2E/DX2                !
 ! D253  D(113,111,114,115)    -60.1498         estimate D2E/DX2                !
 ! D254  D(111,114,115,116)    -59.9821         estimate D2E/DX2                !
 ! D255  D(111,114,115,117)     59.9821         estimate D2E/DX2                !
 ! D256  D(111,114,115,118)    180.0            estimate D2E/DX2                !
 ! D257  D(114,115,118,119)     59.1788         estimate D2E/DX2                !
 ! D258  D(114,115,118,120)    -59.1788         estimate D2E/DX2                !
 ! D259  D(114,115,118,121)    180.0            estimate D2E/DX2                !
 ! D260  D(116,115,118,119)    -61.5757         estimate D2E/DX2                !
 ! D261  D(116,115,118,120)   -179.9333         estimate D2E/DX2                !
 ! D262  D(116,115,118,121)     59.2455         estimate D2E/DX2                !
 ! D263  D(117,115,118,119)    179.9333         estimate D2E/DX2                !
 ! D264  D(117,115,118,120)     61.5757         estimate D2E/DX2                !
 ! D265  D(117,115,118,121)    -59.2455         estimate D2E/DX2                !
 ! D266  D(115,118,121,122)    180.0            estimate D2E/DX2                !
 ! D267  D(119,118,121,122)    -60.0092         estimate D2E/DX2                !
 ! D268  D(120,118,121,122)     60.0092         estimate D2E/DX2                !
 ! D269  D(118,121,122,123)     59.9723         estimate D2E/DX2                !
 ! D270  D(118,121,122,124)    -60.0254         estimate D2E/DX2                !
 ! D271  D(118,121,122,125)    180.0            estimate D2E/DX2                !
 ! D272  D(121,122,125,126)     59.0908         estimate D2E/DX2                !
 ! D273  D(121,122,125,127)    -59.1192         estimate D2E/DX2                !
 ! D274  D(121,122,125,128)    180.0            estimate D2E/DX2                !
 ! D275  D(123,122,125,126)    179.9329         estimate D2E/DX2                !
[...]
       Atomic Center   60 is at -11.305240 -1.359717  0.000004
       Atomic Center   61 is at -12.263324 -1.876624  0.000008
       Atomic Center   62 is at -10.740625 -1.642637 -0.894977
       Atomic Center   63 is at -10.740623 -1.642627  0.894987
       Atomic Center   64 is at -15.647886  3.437847 -0.000017
       Atomic Center   65 is at  -4.470705  1.173921 -0.000023
       Atomic Center   66 is at  -4.746783  2.538218 -0.000039
       Atomic Center   67 is at  -6.121755  2.859313 -0.000042
       Atomic Center   68 is at  -6.940655  1.747847 -0.000027
       Atomic Center   69 is at  -5.987814  0.278152 -0.000021
       Atomic Center   70 is at  -3.712124  3.422288 -0.000049
       Atomic Center   71 is at  -6.506516  3.868793 -0.000051
       Atomic Center   72 is at  -3.189538  0.534031 -0.000012
       Atomic Center   73 is at  -2.907134 -0.828943  0.000007
       Atomic Center   74 is at  -1.531635 -1.144447  0.000003
       Atomic Center   75 is at  -0.717870 -0.028559 -0.000020
       Atomic Center   76 is at  -1.676580  1.437278 -0.000016
       Atomic Center   77 is at  -3.936349 -1.722159  0.000023
       Atomic Center   78 is at  -1.143447 -2.152605  0.000011
       Atomic Center   79 is at  -4.019943  4.810528 -0.000064
       Atomic Center   80 is at  -4.585138  5.091786  0.894956
       Atomic Center   81 is at  -4.585137  5.091766 -0.895092
       Atomic Center   82 is at  -3.062793  5.329087 -0.000069
       Atomic Center   83 is at  -3.620842 -3.111778  0.000025
       Atomic Center   84 is at  -3.040535 -3.376652  0.890582
       Atomic Center   85 is at  -3.040543 -3.376656 -0.890535
       Atomic Center   86 is at  -4.939238 -3.865036  0.000037
       Atomic Center   87 is at  -5.524402 -3.593081  0.889538
       Atomic Center   88 is at  -5.524402 -3.593113 -0.889475
       Atomic Center   89 is at  -4.623140 -5.243624  0.000061
       Atomic Center   90 is at  -5.763228 -6.084138  0.000061
       Atomic Center   91 is at  -6.383999 -5.904491  0.889089
       Atomic Center   92 is at  -6.383976 -5.904522 -0.888990
       Atomic Center   93 is at  -5.272962 -7.521306  0.000093
       Atomic Center   94 is at  -4.651380 -7.700586  0.888874
       Atomic Center   95 is at  -4.651362 -7.700620 -0.888669
       Atomic Center   96 is at  -6.413510 -8.358282  0.000098
       Atomic Center   97 is at  -6.098808 -9.739144  0.000123
       Atomic Center   98 is at  -5.511037-10.008762  0.888862
       Atomic Center   99 is at  -5.511084-10.008806 -0.888634
       Atomic Center  100 is at  -7.407631-10.508814  0.000171
       Atomic Center  101 is at  -7.996169-10.237083 -0.888661
       Atomic Center  102 is at  -7.996101-10.237100  0.889053
       Atomic Center  103 is at  -7.090808-11.886414  0.000147
       Atomic Center  104 is at  -8.234860-12.715251  0.000200
       Atomic Center  105 is at  -8.855437-12.548017 -0.892003
       Atomic Center  106 is at  -7.885466-13.748074  0.000170
       Atomic Center  107 is at  -8.855340-12.548037  0.892474
       Atomic Center  108 is at   3.620777  3.111774 -0.000045
       Atomic Center  109 is at   3.040452  3.376614  0.890515
       Atomic Center  110 is at   3.040442  3.376677 -0.890580
       Atomic Center  111 is at   4.939164  3.865011 -0.000027
       Atomic Center  112 is at   5.524341  3.593047  0.889464
       Atomic Center  113 is at   5.524333  3.593102 -0.889541
       Atomic Center  114 is at   4.623109  5.243635  0.000016
       Atomic Center  115 is at   5.763252  6.084087  0.000033
       Atomic Center  116 is at   6.384002  5.904392  0.889063
       Atomic Center  117 is at   6.383989  5.904444 -0.889017
       Atomic Center  118 is at   5.273059  7.521282  0.000079
       Atomic Center  119 is at   4.651475  7.700570  0.888857
       Atomic Center  120 is at   4.651469  7.700625 -0.888683
       Atomic Center  121 is at   6.413627  8.358237  0.000102
       Atomic Center  122 is at   6.098962  9.739110  0.000142
       Atomic Center  123 is at   5.511187 10.008729  0.888877
       Atomic Center  124 is at   5.511256 10.008797 -0.888619
       Atomic Center  125 is at   7.407804 10.508748  0.000218
       Atomic Center  126 is at   7.996343 10.237021 -0.888615
       Atomic Center  127 is at   7.996259 10.236995  0.889098
       Atomic Center  128 is at   7.091023 11.886358  0.000224
       Atomic Center  129 is at   8.235101 12.715162  0.000292
       Atomic Center  130 is at   8.855670 12.547927 -0.891915
       Atomic Center  131 is at   7.885738 13.747995  0.000284
       Atomic Center  132 is at   8.855576 12.547910  0.892562
   73098 points will be used for fitting atomic charges
 Fitting point charges to electrostatic potential
 Charges from ESP fit, RMS=   0.00366 RRMS=   0.28539:
 ESP charges:
               1
     1  C   -0.020940
     2  C    0.276214
     3  C   -0.352834
     4  C    0.107672
     5  S   -0.186480
     6  O   -0.289767
     7  H    0.225441
     8  C    0.027962
     9  C    0.201962
    10  C   -0.349690
    11  C    0.132361
    12  S   -0.202283
    13  O   -0.172053
    14  H    0.232179
    15  C   -0.006132
    16  H    0.082733
    17  H    0.039926
    18  H    0.039921
    19  C    0.007552
    20  C    0.262565
    21  C   -0.315092
    22  C    0.080731
    23  S   -0.186453
    24  O   -0.263415
    25  H    0.206225
    26  C   -0.107096
    27  C    0.313261
    28  C   -0.280642
    29  C   -0.174549
    30  S   -0.018762
    31  O   -0.199492
    32  H    0.150455
    33  C    0.050228
    34  H    0.029862
    35  H    0.029868
    36  H    0.072726
    37  C   -0.029062
    38  H    0.086505
    39  H    0.050141
    40  H    0.050147
    41  H    0.174691
    42  C   -0.107255
    43  C    0.313619
    44  C   -0.280830
    45  C   -0.174555
    46  S   -0.018737
    47  O   -0.200045
    48  H    0.150614
    49  C    0.007640
    50  C    0.262508
    51  C   -0.315048
    52  C    0.080646
    53  S   -0.186404
    54  O   -0.263384
    55  H    0.206221
    56  C   -0.027365
    57  H    0.049579
    58  H    0.049577
    59  H    0.086207
    60  C    0.050210
    61  H    0.072726
    62  H    0.029867
    63  H    0.029872
    64  H    0.174686
    65  C    0.027967
    66  C    0.201964
    67  C   -0.349710
    68  C    0.132427
    69  S   -0.202304
    70  O   -0.172062
    71  H    0.232172
    72  C   -0.020928
    73  C    0.276191
    74  C   -0.352793
    75  C    0.107631
    76  S   -0.186477
    77  O   -0.289762
    78  H    0.225427
    79  C   -0.006132
    80  H    0.039929
    81  H    0.039927
    82  H    0.082735
    83  C    0.147907
    84  H    0.008311
    85  H    0.008304
    86  C    0.433461
    87  H   -0.038195
    88  H   -0.038205
    89  O   -0.553985
    90  C    0.231913
    91  H   -0.007436
    92  H   -0.007422
    93  C    0.428368
    94  H   -0.039748
    95  H   -0.039743
    96  O   -0.566654
    97  C    0.253824
    98  H   -0.014539
    99  H   -0.014538
   100  C    0.330535
   101  H   -0.016114
   102  H   -0.016115
   103  O   -0.467897
   104  C    0.181831
   105  H   -0.009369
   106  H    0.038287
   107  H   -0.009350
   108  C    0.147908
   109  H    0.008306
   110  H    0.008312
   111  C    0.433466
   112  H   -0.038199
   113  H   -0.038203
   114  O   -0.553989
   115  C    0.231883
   116  H   -0.007425
   117  H   -0.007415
   118  C    0.428404
   119  H   -0.039753
   120  H   -0.039751
   121  O   -0.566685
   122  C    0.253883
   123  H   -0.014558
   124  H   -0.014559
   125  C    0.330552
   126  H   -0.016123
   127  H   -0.016124
   128  O   -0.467886
   129  C    0.181761
   130  H   -0.009349
   131  H    0.038299
   132  H   -0.009325
 Sum of ESP charges =   0.00000
 ESP charges with hydrogens summed into heavy atoms:
               1
     1  C   -0.020940
     2  C    0.276214
     3  C   -0.127393
     4  C    0.107672
     5  S   -0.186480
     6  O   -0.289767
     8  C    0.027962
     9  C    0.201962
    10  C   -0.117511
    11  C    0.132361
    12  S   -0.202283
    13  O   -0.172053
    15  C    0.156448
    19  C    0.007552
    20  C    0.262565
    21  C   -0.108867
    22  C    0.080731
    23  S   -0.186453
    24  O   -0.263415
    26  C   -0.107096
    27  C    0.313261
    28  C   -0.130187
    29  C    0.000142
    30  S   -0.018762
    31  O   -0.199492
    33  C    0.182684
    37  C    0.157731
    42  C   -0.107255
    43  C    0.313619
    44  C   -0.130216
    45  C    0.000131
    46  S   -0.018737
    47  O   -0.200045
    49  C    0.007640
    50  C    0.262508
    51  C   -0.108827
    52  C    0.080646
    53  S   -0.186404
    54  O   -0.263384
    56  C    0.157998
    60  C    0.182675
    65  C    0.027967
    66  C    0.201964
    67  C   -0.117538
    68  C    0.132427
    69  S   -0.202304
    70  O   -0.172062
    72  C   -0.020928
    73  C    0.276191
    74  C   -0.127366
    75  C    0.107631
    76  S   -0.186477
    77  O   -0.289762
    79  C    0.156458
    83  C    0.164522
    86  C    0.357061
    89  O   -0.553985
    90  C    0.217056
    93  C    0.348876
    96  O   -0.566654
    97  C    0.224748
   100  C    0.298305
   103  O   -0.467897
   104  C    0.201400
   108  C    0.164526
   111  C    0.357064
   114  O   -0.553989
   115  C    0.217043
   118  C    0.348900
   121  O   -0.566685
   122  C    0.224767
   125  C    0.298305
   128  O   -0.467886
   129  C    0.201387
 Charge=   0.00000 Dipole=     0.0012    -0.0013     0.0003 Tot=     0.0017
 -----------------------------------------------------------------

              Electrostatic Properties (Atomic Units)

 -----------------------------------------------------------------
    Center     Electric         -------- Electric Field --------
               Potential          X             Y             Z
 -----------------------------------------------------------------
    1 Atom    -14.744428
    2 Atom    -14.715518
    3 Atom    -14.777103
    4 Atom    -14.742792
    5 Atom    -59.227629
    6 Atom    -22.335944
    7 Atom     -1.093509
    8 Atom    -14.744468
    9 Atom    -14.716211
   10 Atom    -14.776408
   11 Atom    -14.741696
   12 Atom    -59.226532
   13 Atom    -22.337416
   14 Atom     -1.092475
   15 Atom    -14.716542
   16 Atom     -1.102138
   17 Atom     -1.103588
   18 Atom     -1.103588
   19 Atom    -14.745827
   20 Atom    -14.717493
   21 Atom    -14.776870
   22 Atom    -14.742560
   23 Atom    -59.227218
   24 Atom    -22.338667
   25 Atom     -1.092811
   26 Atom    -14.746826
   27 Atom    -14.718198
   28 Atom    -14.775530
   29 Atom    -14.757654
   30 Atom    -59.225724
   31 Atom    -22.338053
   32 Atom     -1.093271
   33 Atom    -14.717085
   34 Atom     -1.104154
   35 Atom     -1.104154
   36 Atom     -1.102755
   37 Atom    -14.715594
   38 Atom     -1.101231
   39 Atom     -1.102800
   40 Atom     -1.102800
   41 Atom     -1.086089
   42 Atom    -14.746826
   43 Atom    -14.718198
   44 Atom    -14.775531
   45 Atom    -14.757655
   46 Atom    -59.225725
   47 Atom    -22.338053
   48 Atom     -1.093272
   49 Atom    -14.745827
   50 Atom    -14.717493
   51 Atom    -14.776870
   52 Atom    -14.742560
   53 Atom    -59.227218
   54 Atom    -22.338667
   55 Atom     -1.092811
   56 Atom    -14.715595
   57 Atom     -1.102800
   58 Atom     -1.102800
   59 Atom     -1.101231
   60 Atom    -14.717085
   61 Atom     -1.102754
   62 Atom     -1.104153
   63 Atom     -1.104153
   64 Atom     -1.086089
   65 Atom    -14.744467
   66 Atom    -14.716210
   67 Atom    -14.776408
   68 Atom    -14.741697
   69 Atom    -59.226532
   70 Atom    -22.337417
   71 Atom     -1.092476
   72 Atom    -14.744427
   73 Atom    -14.715517
   74 Atom    -14.777102
   75 Atom    -14.742792
   76 Atom    -59.227630
   77 Atom    -22.335944
   78 Atom     -1.093509
   79 Atom    -14.716542
   80 Atom     -1.103588
   81 Atom     -1.103588
   82 Atom     -1.102138
   83 Atom    -14.713987
   84 Atom     -1.109722
   85 Atom     -1.109722
   86 Atom    -14.720195
   87 Atom     -1.115755
   88 Atom     -1.115755
   89 Atom    -22.362236
   90 Atom    -14.723701
   91 Atom     -1.118586
   92 Atom     -1.118586
   93 Atom    -14.725252
   94 Atom     -1.120292
   95 Atom     -1.120292
   96 Atom    -22.366352
   97 Atom    -14.727459
   98 Atom     -1.122244
   99 Atom     -1.122244
  100 Atom    -14.728768
  101 Atom     -1.122817
  102 Atom     -1.122817
  103 Atom    -22.370993
  104 Atom    -14.730772
  105 Atom     -1.117421
  106 Atom     -1.114427
  107 Atom     -1.117421
  108 Atom    -14.713985
  109 Atom     -1.109720
  110 Atom     -1.109721
  111 Atom    -14.720193
  112 Atom     -1.115754
  113 Atom     -1.115754
  114 Atom    -22.362236
  115 Atom    -14.723701
  116 Atom     -1.118586
  117 Atom     -1.118586
  118 Atom    -14.725252
  119 Atom     -1.120294
  120 Atom     -1.120294
  121 Atom    -22.366353
  122 Atom    -14.727458
  123 Atom     -1.122244
  124 Atom     -1.122245
  125 Atom    -14.728768
  126 Atom     -1.122818
  127 Atom     -1.122818
  128 Atom    -22.370994
  129 Atom    -14.730772
  130 Atom     -1.117421
  131 Atom     -1.114427
  132 Atom     -1.117421
 -----------------------------------------------------------------
 Leave Link  602 at Mon Jan 13 17:42:49 2020, MaxMem=  6710886400 cpu:             248.2 elap:              15.6
 (Enter /apps/gaussian/g16-a03/l9999.exe)
 1\1\GINC-CX1-141-15-1\FOpt\RB3LYP\6-311G(d,p)\C52H58O14S8\NS5018\13-Ja
 n-2020\0\\#p opt Pop=CHelpG b3lyp/6-311g**\\O3G_4m_0sc_opt_pop.gjf\\0,
 1\C,3.2730659456,0.326577249,-0.0000716442\C,2.6446509486,1.5685748751
 ,-0.0000817607\C,1.2344906534,1.5140779917,-0.0000692209\C,0.740237204
 3,0.2244451751,-0.0000482884\S,2.0483443847,-0.9402948866,-0.000046599
 4\O,3.4050060886,2.699491183,-0.0001061074\H,0.5965706742,2.385931376,
 -0.0000757678\C,4.6768465826,0.0433319822,-0.0000798372\C,5.2994992362
 ,-1.2015936015,-0.000070315\C,6.7106148083,-1.1526248615,-0.0000762693
 \C,7.2109735368,0.1340756075,-0.000089051\S,5.9075138611,1.3040720939,
 -0.0001101599\O,4.531501041,-2.3251006122,-0.0000500304\H,7.3455567155
 ,-2.0266616918,-0.000065821\C,5.191051263,-3.5848439328,-0.0000714134\
 H,4.4024620103,-4.3352881851,-0.0000642425\H,5.8100537072,-3.708785433
 9,-0.8951063286\H,5.8100828505,-3.7088005515,0.8949413576\C,11.1167073
 717,0.6456506357,-0.0000687876\C,10.4991602123,1.89001065,-0.00009253\
 C,9.0864269527,1.8441609376,-0.0001059856\C,8.5851770261,0.5582047558,
 -0.0000913488\S,9.8870745134,-0.6130415415,-0.0000840959\O,11.26999840
 9,3.0125575294,-0.0000946035\H,8.4532202244,2.719451779,-0.0001185558\
 C,12.5253048171,0.3560761178,-0.0000413762\C,13.1409469311,-0.88859618
 1,-0.0000176751\C,14.5625887379,-0.837079141,-0.0000049537\C,15.030228
 3308,0.4459443659,-0.000021816\S,13.7573215618,1.6129705876,-0.0000250
 859\O,12.3727915683,-2.0144664092,-0.0000150005\H,15.2061638144,-1.704
 6651819,0.0000078103\C,10.6130076465,4.2732393832,-0.0001176691\H,9.99
 4102382,4.3989635607,0.8948542035\H,9.9941267643,4.3989437472,-0.89510
 9175\H,11.4029327643,5.0223299219,-0.0001151811\C,13.0347944605,-3.271
 7643015,0.0000071287\H,12.2484940919,-4.0247930193,0.0000050222\H,13.6
 544086099,-3.3957436433,-0.8948882574\H,13.6543855329,-3.3957245318,0.
 8949211396\H,16.0574704567,0.7755479617,-0.0000230228\C,-12.4158641969
 ,-0.3369817415,-0.0000329106\C,-13.0315265443,0.9076817462,-0.00004135
 6\C,-14.4531671897,0.856141902,-0.0000407945\C,-14.9207862556,-0.42688
 88944,-0.0000311088\S,-13.647860116,-1.5938936278,-0.0000311284\O,-12.
 263393612,2.0335668051,-0.0000472356\H,-15.0967569007,1.7237171114,-0.
 0000448362\C,-11.0072652951,-0.6265483032,-0.0000280188\C,-10.38972614
 59,-1.8709113239,-0.0000193908\C,-8.976992992,-1.8250703984,-0.0000204
 297\C,-8.4757355582,-0.5391167117,-0.0000299734\S,-9.777625355,0.63213
 80982,-0.0000306031\O,-11.1605754238,-2.9934501961,-0.0000134356\H,-8.
 3437914815,-2.7003648474,-0.0000170725\C,-12.9254227524,3.2908512466,-
 0.0000549562\H,-13.5450286553,3.4148128188,0.894848501\H,-13.545027120
 2,3.4148027066,-0.8949608764\H,-12.1391381962,4.0438964787,-0.00005853
 03\C,-10.5035961512,-4.254138838,-0.0000059091\H,-11.2935294133,-5.003
 220567,-0.0000022409\H,-9.8847041493,-4.3798633531,-0.8949866631\H,-9.
 8847053295,-4.379853345,0.894977066\H,-15.9480229711,-0.7565091845,-0.
 0000267944\C,-4.5674003057,-0.024272784,-0.0000327607\C,-5.1900397266,
 1.2206560484,-0.0000492033\C,-6.6011576008,1.1716977687,-0.0000517205\
 C,-7.1015299595,-0.1149961107,-0.000037004\S,-5.7980793941,-1.28500702
 15,-0.0000304597\O,-4.4220295209,2.3441587675,-0.0000584832\H,-7.23609
 08576,2.0457407568,-0.0000608745\C,-3.1636184965,-0.3075428242,-0.0000
 219899\C,-2.5352172729,-1.549542608,-0.0000028495\C,-1.1250503744,-1.4
 950506231,-0.0000066521\C,-0.6307892745,-0.2054278623,-0.000029759\S,-
 1.9388985294,0.9593265948,-0.0000261729\O,-3.2955844033,-2.6804540329,
 0.0000128949\H,-0.4871534378,-2.3669215486,0.0000011525\C,-5.081559755
 3,3.6039143739,-0.0000740696\H,-5.7005779141,3.7278831488,0.894946167\
 H,-5.7005713007,3.7278646266,-0.895101446\H,-4.2929591237,4.3543467312
 ,-0.0000789109\C,-2.6282735436,-3.9395338365,0.0000155611\H,-1.9989440
 826,-4.0437416984,0.8905722392\H,-1.9989509701,-4.043747907,-0.8905451
 711\C,-3.7043294723,-5.0108257227,0.0000267027\H,-4.340195838,-4.90104
 99344,0.8895283175\H,-4.3401869268,-4.9010812783,-0.8894851089\O,-3.03
 93267772,-6.2591030491,0.0000514955\C,-3.9204804275,-7.3680815348,0.00
 00509862\H,-4.5666237045,-7.3567079045,0.8890786861\H,-4.5665926862,-7
 .3567313952,-0.888999516\C,-3.0720575907,-8.6274425588,0.0000832759\H,
 -2.4252277981,-8.6382499796,0.8888643504\H,-2.4252018278,-8.6382783659
 ,-0.8886785817\O,-3.9545782092,-9.733126078,0.0000884374\C,-3.29032993
 82,-10.9839619732,0.0001126863\H,-2.6525575918,-11.0908010822,0.888851
 662\H,-2.6525915706,-11.0908560163,-0.8886441379\C,-4.3528606214,-12.0
 685990028,0.0001610348\H,-4.9919258749,-11.9599203891,-0.8886706207\H,
 -4.9918556568,-11.9599186088,0.8890428165\O,-3.6874164854,-13.31573254
 71,0.0001373511\C,-4.5754449922,-14.4144737017,0.0001904287\H,-5.21815
 98151,-14.415032633,-0.8920124555\H,-3.9685589539,-15.3202819308,0.000
 1599684\H,-5.218061078,-14.4150265397,0.8924644744\C,2.7376841342,3.95
 85763932,-0.0000548774\H,2.1083468661,4.0627474823,0.8905052948\H,2.10
 83204185,4.0628053038,-0.8905897727\C,3.8137377804,5.029846807,-0.0000
 371979\H,4.4496183414,4.920065765,0.8894541528\H,4.4495966571,4.920117
 0266,-0.8895504504\O,3.1487673026,6.2781696892,0.0000065269\C,4.029989
 4797,7.3871030131,0.0000230106\H,4.6761250179,7.3756770094,0.889053056
 8\H,4.6760988963,7.3757237626,-0.8890266027\C,3.1816301882,8.646509562
 1,0.0000692915\H,2.5347963875,8.6573234193,0.8888466467\H,2.5347760649
 ,8.6573750513,-0.8886927078\O,4.0641762843,9.7521772974,0.0000919231\C
 ,3.3999604569,11.003033899,0.0001317716\H,2.7621841408,11.1098729174,0
 .8888675368\H,2.7622321196,11.1099566347,-0.88862846\C,4.4625182411,12
 .0876446294,0.0002079318\H,5.1015826664,11.9789699095,-0.8886248576\H,
 5.1015085995,11.978923148,0.8890881401\O,3.7971116638,13.3347986208,0.
 0002136962\C,4.6851735117,14.4335146538,0.0002823274\H,5.3278814535,14
 .434070647,-0.8919251918\H,4.0783146718,15.3393410255,0.0002742134\H,5
 .3277954493,14.4340292578,0.8925518693\\Version=ES64L-G16RevA.03\State
 =1-A\HF=-6255.8265583\RMSD=6.182e-09\RMSF=2.130e-06\Dipole=0.0000088,-
 0.0001055,0.000056\Quadrupole=19.4524646,35.9196141,-55.3720787,-6.867
 4563,0.0004662,-0.0004339\PG=C01 [X(C52H58O14S8)]\\@


 SCIENCE AND PEACE WILL TRIUMPH OVER IGNORANCE AND WAR

                          -- PASTEUR
 Job cpu time:       1 days 13 hours 18 minutes 30.6 seconds.
 Elapsed time:       0 days  2 hours 20 minutes 27.1 seconds.
 File lengths (MBytes):  RWF=   1854 Int=      0 D2E=      0 Chk=    222 Scr=      1
 Normal termination of Gaussian 16 at Mon Jan 13 17:42:50 2020.
