 Entering Gaussian System, Link 0=g16
 Input=O3G_4m_0sce_opt_pop.gjf
 Output=O3G_4m_0sce_opt_pop.log
 Initial command:
 /apps/gaussian/g16-a03/l1.exe "/tmp/pbs.958364.pbs/Gau-5902.inp" -scrdir="/tmp/pbs.958364.pbs/"
 Entering Link 1 = /apps/gaussian/g16-a03/l1.exe PID=      5905.
  
 Copyright (c) 1988,1990,1992,1993,1995,1998,2003,2009,2016,
            Gaussian, Inc.  All Rights Reserved.
  
 This is part of the Gaussian(R) 16 program.  It is based on
 the Gaussian(R) 09 system (copyright 2009, Gaussian, Inc.),
 the Gaussian(R) 03 system (copyright 2003, Gaussian, Inc.),
 the Gaussian(R) 98 system (copyright 1998, Gaussian, Inc.),
 the Gaussian(R) 94 system (copyright 1995, Gaussian, Inc.),
 the Gaussian 92(TM) system (copyright 1992, Gaussian, Inc.),
 the Gaussian 90(TM) system (copyright 1990, Gaussian, Inc.),
 the Gaussian 88(TM) system (copyright 1988, Gaussian, Inc.),
 the Gaussian 86(TM) system (copyright 1986, Carnegie Mellon
 University), and the Gaussian 82(TM) system (copyright 1983,
 Carnegie Mellon University). Gaussian is a federally registered
 trademark of Gaussian, Inc.
  
 This software contains proprietary and confidential information,
 including trade secrets, belonging to Gaussian, Inc.
  
 This software is provided under written license and may be
 used, copied, transmitted, or stored only in accord with that
 written license.
  
 The following legend is applicable only to US Government
 contracts under FAR:
  
                    RESTRICTED RIGHTS LEGEND
  
 Use, reproduction and disclosure by the US Government is
 subject to restrictions as set forth in subparagraphs (a)
 and (c) of the Commercial Computer Software - Restricted
 Rights clause in FAR 52.227-19.
  
 Gaussian, Inc.
 340 Quinnipiac St., Bldg. 40, Wallingford CT 06492
  
  
 ---------------------------------------------------------------
 Warning -- This program may not be used in any manner that
 competes with the business of Gaussian, Inc. or will provide
 assistance to any competitor of Gaussian, Inc.  The licensee
 of this program is prohibited from giving any competitor of
 Gaussian, Inc. access to this program.  By using this program,
 the user acknowledges that Gaussian, Inc. is engaged in the
 business of creating and licensing software in the field of
 computational chemistry and represents and warrants to the
 licensee that it is not a competitor of Gaussian, Inc. and that
 it will not use this program in any manner prohibited above.
 ---------------------------------------------------------------
  

 Cite this work as:
 Gaussian 16, Revision A.03,
 M. J. Frisch, G. W. Trucks, H. B. Schlegel, G. E. Scuseria, 
 M. A. Robb, J. R. Cheeseman, G. Scalmani, V. Barone, 
 G. A. Petersson, H. Nakatsuji, X. Li, M. Caricato, A. V. Marenich, 
 J. Bloino, B. G. Janesko, R. Gomperts, B. Mennucci, H. P. Hratchian, 
 J. V. Ortiz, A. F. Izmaylov, J. L. Sonnenberg, D. Williams-Young, 
 F. Ding, F. Lipparini, F. Egidi, J. Goings, B. Peng, A. Petrone, 
 T. Henderson, D. Ranasinghe, V. G. Zakrzewski, J. Gao, N. Rega, 
 G. Zheng, W. Liang, M. Hada, M. Ehara, K. Toyota, R. Fukuda, 
 J. Hasegawa, M. Ishida, T. Nakajima, Y. Honda, O. Kitao, H. Nakai, 
 T. Vreven, K. Throssell, J. A. Montgomery, Jr., J. E. Peralta, 
 F. Ogliaro, M. J. Bearpark, J. J. Heyd, E. N. Brothers, K. N. Kudin, 
 V. N. Staroverov, T. A. Keith, R. Kobayashi, J. Normand, 
 K. Raghavachari, A. P. Rendell, J. C. Burant, S. S. Iyengar, 
 J. Tomasi, M. Cossi, J. M. Millam, M. Klene, C. Adamo, R. Cammi, 
 J. W. Ochterski, R. L. Martin, K. Morokuma, O. Farkas, 
 J. B. Foresman, and D. J. Fox, Gaussian, Inc., Wallingford CT, 2016.
 
 ******************************************
 Gaussian 16:  ES64L-G16RevA.03 25-Dec-2016
                14-Jan-2020 
 ******************************************
 %mem=50GB
 %nprocshared=16
 Will use up to   16 processors via shared memory.
 -----------------------------------
 #p opt b3lyp/6-311g(d,p) pop=chelpg
 -----------------------------------
 1/18=20,19=15,26=3,38=1/1,3;
 2/9=110,12=2,17=6,18=5,40=1/2;
 3/5=4,6=6,7=101,11=2,25=1,30=1,71=1,74=-5/1,2,3;
 4//1;
 5/5=2,38=5/2;
 6/7=2,8=2,9=2,10=2,15=8,20=3,28=1/1,2;
 7//1,2,3,16;
 1/18=20,19=15,26=3/3(2);
 2/9=110/2;
 99//99;
 2/9=110/2;
 3/5=4,6=6,7=101,11=2,25=1,30=1,71=1,74=-5/1,2,3;
 4/5=5,16=3,69=1/1;
 5/5=2,38=5/2;
 7//1,2,3,16;
 1/18=20,19=15,26=3/3(-5);
 2/9=110/2;
 6/7=2,8=2,9=2,10=2,15=8,19=2,20=3,28=1/1,2;
 99/9=1/99;
 Leave Link    1 at Tue Jan 14 08:55:49 2020, MaxMem=  6710886400 cpu:               0.5 elap:               0.0
 (Enter /apps/gaussian/g16-a03/l101.exe)
 -----------------------
 O3G_4m_0sce_opt_pop.gjf
 -----------------------
 Symbolic Z-matrix:
 Charge =  0 Multiplicity = 1
 C                     3.73602  -1.69603   0. 
 C                     3.11902  -0.45103   0. 
 C                     1.70302  -0.45903   0. 
 C                     1.13902  -1.71703   0. 
 S                     2.44402  -2.99803   0. 
 O                     3.92002   0.68497   0. 
 H                     1.10402   0.43797   0. 
 C                     5.12002  -2.00803   0. 
 C                     5.73702  -3.25203   0. 
 C                     7.15302  -3.24403   0. 
 C                     7.71602  -1.98603   0. 
 S                     6.41202  -0.70503   0. 
 O                     4.93602  -4.38803   0. 
 H                     7.75302  -4.14103   0. 
 C                     5.57502  -5.69403   0. 
 H                     4.75902  -6.40803   0. 
 H                     6.18602  -5.83103  -0.894 
 H                     6.18602  -5.83103   0.895 
 C                     11.68702  -1.59103   0. 
 C                     11.07402  -0.34903   0. 
 C                     9.65602  -0.35503   0. 
 C                     9.09202  -1.61103   0. 
 S                     10.39602  -2.89203   0. 
 O                     11.87502   0.78797   0. 
 H                     9.05802   0.54297   0. 
 C                     13.07602  -1.90903   0. 
 C                     13.68602  -3.15203   0. 
 C                     15.11602  -3.13803   0. 
 C                     15.64202  -1.88303   0. 
 S                     14.37302  -0.61003   0. 
 O                     12.88802  -4.29203   0. 
 H                     15.72402  -4.02903   0. 
 C                     11.23802   2.09397   0. 
 H                     10.62702   2.23197   0.895 
 H                     10.62702   2.23197  -0.895 
 H                     12.05502   2.80697   0. 
 C                     13.53002  -5.59503   0. 
 H                     12.71602  -6.31203   0. 
 H                     14.14102  -5.73203  -0.895 
 H                     14.14102  -5.73203   0.895 
 H                     16.67602  -1.58903   0. 
 C                    -12.17198  -1.89903   0. 
 C                    -12.78198  -0.65603   0. 
 C                    -14.21198  -0.67003   0. 
 C                    -14.73798  -1.92503   0. 
 S                    -13.46898  -3.19803   0. 
 O                    -11.98398   0.48397   0. 
 H                    -14.81998   0.22097   0. 
 C                    -10.78298  -2.21703   0. 
 C                    -10.16998  -3.45903   0. 
 C                    -8.75198  -3.45303   0. 
 C                    -8.18798  -2.19703   0. 
 S                    -9.49198  -0.91603   0. 
 O                    -10.97098  -4.59603   0. 
 H                    -8.15398  -4.35103   0. 
 H                    -15.77198  -2.21903   0. 
 C                    -4.21598  -1.80003   0. 
 C                    -4.83298  -0.55603   0. 
 C                    -6.24898  -0.56403   0. 
 C                    -6.81198  -1.82203   0. 
 S                    -5.50798  -3.10303   0. 
 O                    -4.03198   0.57997   0. 
 H                    -6.84898   0.33297   0. 
 C                    -2.83198  -2.11203   0. 
 C                    -2.21498  -3.35703   0. 
 C                    -0.79898  -3.34903   0. 
 C                    -0.23498  -2.09103   0. 
 S                    -1.53998  -0.81003   0. 
 O                    -3.01598  -4.49303   0. 
 H                    -0.19998  -4.24603   0. 
 C                    -4.67098   1.88597   0. 
 H                    -5.28198   2.02297   0.895 
 H                    -5.28198   2.02297  -0.895 
 H                    -3.85498   2.59997   0. 
 C                    -10.31047  -5.76366   0. 
 H                    -9.83137  -6.18362   0.89 
 H                    -9.83137  -6.18362  -0.891 
 C                    -11.21111  -6.98515   0. 
 H                    -11.85716  -6.97238   0.889 
 H                    -11.85716  -6.97238  -0.889 
 O                    -10.3649  -8.11762   0. 
 C                    -11.06861  -9.34786   0. 
 H                    -11.7085  -9.4339    0.889 
 H                    -11.7085  -9.4339   -0.889 
 C                    -10.03808  -10.46382   0. 
 H                    -9.39626  -10.37666   0.889 
 H                    -9.39626  -10.37666  -0.889 
 O                    -10.74204  -11.69006   0. 
 C                    -9.89564  -12.82553   0. 
 H                    -9.24984  -12.83431   0.888 
 H                    -9.24878  -12.83524  -0.889 
 C                    -10.78156  -14.05813   0. 
 H                    -11.42942  -14.04848  -0.888 
 H                    -11.42942  -14.04848   0.889 
 O                    -9.93429  -15.19154   0. 
 C                    -10.64667  -16.4113   0. 
 H                    -11.28281  -16.50912  -0.892 
 H                    -9.91016  -17.21496   0. 
 H                    -11.28281  -16.50912   0.893 
 C                    -13.05867   1.31199   0. 
 H                    -13.40061   0.77285   0.89 
 H                    -13.40061   0.77285  -0.891 
 C                    -12.04345   2.44021   0. 
 H                    -11.40172   2.36581   0.889 
 H                    -11.40172   2.36581  -0.889 
 O                    -12.77693   3.64996   0. 
 C                    -11.95761   4.80691   0. 
 H                    -11.31152   4.83049   0.889 
 H                    -11.31152   4.83049  -0.889 
 C                    -12.8751   6.01634   0. 
 H                    -13.52219   5.99176   0.889 
 H                    -13.52219   5.99176  -0.889 
 O                    -12.05579   7.16829   0. 
 C                    -12.78827   8.38103   0. 
 H                    -13.431    8.45243   0.888 
 H                    -13.431    8.45343  -0.889 
 C                    -11.787    9.5223    0. 
 H                    -11.14326   9.4499   -0.888 
 H                    -11.14326   9.4499    0.889 
 O                    -12.52048   10.73205   0. 
 C                    -11.6942   11.87697   0. 
 H                    -11.05207   11.91257  -0.892 
 H                    -12.35095   12.74843   0. 
 H                    -11.05207   11.91257   0.893 
 C                     3.21491   1.92818   0.04622 
 H                     2.58696   2.01433  -0.81585 
 H                     2.61361   1.96452   0.93054 
 H                     3.91654   2.73593   0.05855 
 C                    -2.22566  -5.68374  -0.05009 
 H                    -1.6224   -5.6745   -0.93377 
 H                    -1.59411  -5.72918   0.81245 
 H                    -2.86912  -6.53848  -0.06643 
 
 ITRead=  0  0  0  0  0  0  0  0  0  0  0  0  0  0  0  0  0  0  0  0
 ITRead=  0  0  0  0  0  0  0  0  0  0  0  0  0  0  0  0  0  0  0  0
 ITRead=  0  0  0  0  0  0  0  0  0  0  0  0  0  0  0  0  0  0  0  0
 ITRead=  0  0  0  0  0  0  0  0  0  0  0  0  0  0  0  0  0  0  0  0
 ITRead=  0  0  0  0  0  0  0  0  0  0  0  0  0  0  0  0  0  0  0  0
 ITRead=  0  0  0  0  0  0  0  0  0  0  0  0  0  0  0  0  0  0  0  0
 ITRead=  0  0  0  0  0  0  0  0  0  0  0  0
 MicOpt= -1 -1 -1 -1 -1 -1 -1 -1 -1 -1 -1 -1 -1 -1 -1 -1 -1 -1 -1 -1
 MicOpt= -1 -1 -1 -1 -1 -1 -1 -1 -1 -1 -1 -1 -1 -1 -1 -1 -1 -1 -1 -1
 MicOpt= -1 -1 -1 -1 -1 -1 -1 -1 -1 -1 -1 -1 -1 -1 -1 -1 -1 -1 -1 -1
 MicOpt= -1 -1 -1 -1 -1 -1 -1 -1 -1 -1 -1 -1 -1 -1 -1 -1 -1 -1 -1 -1
 MicOpt= -1 -1 -1 -1 -1 -1 -1 -1 -1 -1 -1 -1 -1 -1 -1 -1 -1 -1 -1 -1
 MicOpt= -1 -1 -1 -1 -1 -1 -1 -1 -1 -1 -1 -1 -1 -1 -1 -1 -1 -1 -1 -1
 MicOpt= -1 -1 -1 -1 -1 -1 -1 -1 -1 -1 -1 -1
 NAtoms=    132 NQM=      132 NQMF=       0 NMMI=      0 NMMIF=      0
                NMic=       0 NMicF=      0.
                    Isotopes and Nuclear Properties:
 (Nuclear quadrupole moments (NQMom) in fm**2, nuclear magnetic moments (NMagM)
  in nuclear magnetons)

  Atom         1           2           3           4           5           6           7           8           9          10
 IAtWgt=          12          12          12          12          32          16           1          12          12          12
 AtmWgt=  12.0000000  12.0000000  12.0000000  12.0000000  31.9720718  15.9949146   1.0078250  12.0000000  12.0000000  12.0000000
 NucSpn=           0           0           0           0           0           0           1           0           0           0
 AtZEff=  -0.0000000  -0.0000000  -0.0000000  -0.0000000  -0.0000000  -0.0000000  -0.0000000  -0.0000000  -0.0000000  -0.0000000
 NQMom=    0.0000000   0.0000000   0.0000000   0.0000000   0.0000000   0.0000000   0.0000000   0.0000000   0.0000000   0.0000000
 NMagM=    0.0000000   0.0000000   0.0000000   0.0000000   0.0000000   0.0000000   2.7928460   0.0000000   0.0000000   0.0000000
 AtZNuc=   6.0000000   6.0000000   6.0000000   6.0000000  16.0000000   8.0000000   1.0000000   6.0000000   6.0000000   6.0000000

  Atom        11          12          13          14          15          16          17          18          19          20
 IAtWgt=          12          32          16           1          12           1           1           1          12          12
 AtmWgt=  12.0000000  31.9720718  15.9949146   1.0078250  12.0000000   1.0078250   1.0078250   1.0078250  12.0000000  12.0000000
 NucSpn=           0           0           0           1           0           1           1           1           0           0
 AtZEff=  -0.0000000  -0.0000000  -0.0000000  -0.0000000  -0.0000000  -0.0000000  -0.0000000  -0.0000000  -0.0000000  -0.0000000
 NQMom=    0.0000000   0.0000000   0.0000000   0.0000000   0.0000000   0.0000000   0.0000000   0.0000000   0.0000000   0.0000000
 NMagM=    0.0000000   0.0000000   0.0000000   2.7928460   0.0000000   2.7928460   2.7928460   2.7928460   0.0000000   0.0000000
 AtZNuc=   6.0000000  16.0000000   8.0000000   1.0000000   6.0000000   1.0000000   1.0000000   1.0000000   6.0000000   6.0000000

  Atom        21          22          23          24          25          26          27          28          29          30
 IAtWgt=          12          12          32          16           1          12          12          12          12          32
 AtmWgt=  12.0000000  12.0000000  31.9720718  15.9949146   1.0078250  12.0000000  12.0000000  12.0000000  12.0000000  31.9720718
 NucSpn=           0           0           0           0           1           0           0           0           0           0
 AtZEff=  -0.0000000  -0.0000000  -0.0000000  -0.0000000  -0.0000000  -0.0000000  -0.0000000  -0.0000000  -0.0000000  -0.0000000
 NQMom=    0.0000000   0.0000000   0.0000000   0.0000000   0.0000000   0.0000000   0.0000000   0.0000000   0.0000000   0.0000000
 NMagM=    0.0000000   0.0000000   0.0000000   0.0000000   2.7928460   0.0000000   0.0000000   0.0000000   0.0000000   0.0000000
 AtZNuc=   6.0000000   6.0000000  16.0000000   8.0000000   1.0000000   6.0000000   6.0000000   6.0000000   6.0000000  16.0000000

  Atom        31          32          33          34          35          36          37          38          39          40
 IAtWgt=          16           1          12           1           1           1          12           1           1           1
 AtmWgt=  15.9949146   1.0078250  12.0000000   1.0078250   1.0078250   1.0078250  12.0000000   1.0078250   1.0078250   1.0078250
 NucSpn=           0           1           0           1           1           1           0           1           1           1
 AtZEff=  -0.0000000  -0.0000000  -0.0000000  -0.0000000  -0.0000000  -0.0000000  -0.0000000  -0.0000000  -0.0000000  -0.0000000
 NQMom=    0.0000000   0.0000000   0.0000000   0.0000000   0.0000000   0.0000000   0.0000000   0.0000000   0.0000000   0.0000000
 NMagM=    0.0000000   2.7928460   0.0000000   2.7928460   2.7928460   2.7928460   0.0000000   2.7928460   2.7928460   2.7928460
 AtZNuc=   8.0000000   1.0000000   6.0000000   1.0000000   1.0000000   1.0000000   6.0000000   1.0000000   1.0000000   1.0000000

  Atom        41          42          43          44          45          46          47          48          49          50
 IAtWgt=           1          12          12          12          12          32          16           1          12          12
 AtmWgt=   1.0078250  12.0000000  12.0000000  12.0000000  12.0000000  31.9720718  15.9949146   1.0078250  12.0000000  12.0000000
 NucSpn=           1           0           0           0           0           0           0           1           0           0
 AtZEff=  -0.0000000  -0.0000000  -0.0000000  -0.0000000  -0.0000000  -0.0000000  -0.0000000  -0.0000000  -0.0000000  -0.0000000
 NQMom=    0.0000000   0.0000000   0.0000000   0.0000000   0.0000000   0.0000000   0.0000000   0.0000000   0.0000000   0.0000000
 NMagM=    2.7928460   0.0000000   0.0000000   0.0000000   0.0000000   0.0000000   0.0000000   2.7928460   0.0000000   0.0000000
 AtZNuc=   1.0000000   6.0000000   6.0000000   6.0000000   6.0000000  16.0000000   8.0000000   1.0000000   6.0000000   6.0000000

  Atom        51          52          53          54          55          56          57          58          59          60
 IAtWgt=          12          12          32          16           1           1          12          12          12          12
 AtmWgt=  12.0000000  12.0000000  31.9720718  15.9949146   1.0078250   1.0078250  12.0000000  12.0000000  12.0000000  12.0000000
 NucSpn=           0           0           0           0           1           1           0           0           0           0
 AtZEff=  -0.0000000  -0.0000000  -0.0000000  -0.0000000  -0.0000000  -0.0000000  -0.0000000  -0.0000000  -0.0000000  -0.0000000
 NQMom=    0.0000000   0.0000000   0.0000000   0.0000000   0.0000000   0.0000000   0.0000000   0.0000000   0.0000000   0.0000000
 NMagM=    0.0000000   0.0000000   0.0000000   0.0000000   2.7928460   2.7928460   0.0000000   0.0000000   0.0000000   0.0000000
 AtZNuc=   6.0000000   6.0000000  16.0000000   8.0000000   1.0000000   1.0000000   6.0000000   6.0000000   6.0000000   6.0000000

  Atom        61          62          63          64          65          66          67          68          69          70
 IAtWgt=          32          16           1          12          12          12          12          32          16           1
 AtmWgt=  31.9720718  15.9949146   1.0078250  12.0000000  12.0000000  12.0000000  12.0000000  31.9720718  15.9949146   1.0078250
 NucSpn=           0           0           1           0           0           0           0           0           0           1
 AtZEff=  -0.0000000  -0.0000000  -0.0000000  -0.0000000  -0.0000000  -0.0000000  -0.0000000  -0.0000000  -0.0000000  -0.0000000
 NQMom=    0.0000000   0.0000000   0.0000000   0.0000000   0.0000000   0.0000000   0.0000000   0.0000000   0.0000000   0.0000000
 NMagM=    0.0000000   0.0000000   2.7928460   0.0000000   0.0000000   0.0000000   0.0000000   0.0000000   0.0000000   2.7928460
 AtZNuc=  16.0000000   8.0000000   1.0000000   6.0000000   6.0000000   6.0000000   6.0000000  16.0000000   8.0000000   1.0000000

  Atom        71          72          73          74          75          76          77          78          79          80
 IAtWgt=          12           1           1           1          12           1           1          12           1           1
 AtmWgt=  12.0000000   1.0078250   1.0078250   1.0078250  12.0000000   1.0078250   1.0078250  12.0000000   1.0078250   1.0078250
 NucSpn=           0           1           1           1           0           1           1           0           1           1
 AtZEff=  -0.0000000  -0.0000000  -0.0000000  -0.0000000  -0.0000000  -0.0000000  -0.0000000  -0.0000000  -0.0000000  -0.0000000
 NQMom=    0.0000000   0.0000000   0.0000000   0.0000000   0.0000000   0.0000000   0.0000000   0.0000000   0.0000000   0.0000000
 NMagM=    0.0000000   2.7928460   2.7928460   2.7928460   0.0000000   2.7928460   2.7928460   0.0000000   2.7928460   2.7928460
 AtZNuc=   6.0000000   1.0000000   1.0000000   1.0000000   6.0000000   1.0000000   1.0000000   6.0000000   1.0000000   1.0000000

  Atom        81          82          83          84          85          86          87          88          89          90
 IAtWgt=          16          12           1           1          12           1           1          16          12           1
 AtmWgt=  15.9949146  12.0000000   1.0078250   1.0078250  12.0000000   1.0078250   1.0078250  15.9949146  12.0000000   1.0078250
 NucSpn=           0           0           1           1           0           1           1           0           0           1
 AtZEff=  -0.0000000  -0.0000000  -0.0000000  -0.0000000  -0.0000000  -0.0000000  -0.0000000  -0.0000000  -0.0000000  -0.0000000
 NQMom=    0.0000000   0.0000000   0.0000000   0.0000000   0.0000000   0.0000000   0.0000000   0.0000000   0.0000000   0.0000000
 NMagM=    0.0000000   0.0000000   2.7928460   2.7928460   0.0000000   2.7928460   2.7928460   0.0000000   0.0000000   2.7928460
 AtZNuc=   8.0000000   6.0000000   1.0000000   1.0000000   6.0000000   1.0000000   1.0000000   8.0000000   6.0000000   1.0000000

  Atom        91          92          93          94          95          96          97          98          99         100
 IAtWgt=           1          12           1           1          16          12           1           1           1          12
 AtmWgt=   1.0078250  12.0000000   1.0078250   1.0078250  15.9949146  12.0000000   1.0078250   1.0078250   1.0078250  12.0000000
 NucSpn=           1           0           1           1           0           0           1           1           1           0
 AtZEff=  -0.0000000  -0.0000000  -0.0000000  -0.0000000  -0.0000000  -0.0000000  -0.0000000  -0.0000000  -0.0000000  -0.0000000
 NQMom=    0.0000000   0.0000000   0.0000000   0.0000000   0.0000000   0.0000000   0.0000000   0.0000000   0.0000000   0.0000000
 NMagM=    2.7928460   0.0000000   2.7928460   2.7928460   0.0000000   0.0000000   2.7928460   2.7928460   2.7928460   0.0000000
 AtZNuc=   1.0000000   6.0000000   1.0000000   1.0000000   8.0000000   6.0000000   1.0000000   1.0000000   1.0000000   6.0000000

  Atom       101         102         103         104         105         106         107         108         109         110
 IAtWgt=           1           1          12           1           1          16          12           1           1          12
 AtmWgt=   1.0078250   1.0078250  12.0000000   1.0078250   1.0078250  15.9949146  12.0000000   1.0078250   1.0078250  12.0000000
 NucSpn=           1           1           0           1           1           0           0           1           1           0
 AtZEff=  -0.0000000  -0.0000000  -0.0000000  -0.0000000  -0.0000000  -0.0000000  -0.0000000  -0.0000000  -0.0000000  -0.0000000
 NQMom=    0.0000000   0.0000000   0.0000000   0.0000000   0.0000000   0.0000000   0.0000000   0.0000000   0.0000000   0.0000000
 NMagM=    2.7928460   2.7928460   0.0000000   2.7928460   2.7928460   0.0000000   0.0000000   2.7928460   2.7928460   0.0000000
 AtZNuc=   1.0000000   1.0000000   6.0000000   1.0000000   1.0000000   8.0000000   6.0000000   1.0000000   1.0000000   6.0000000

  Atom       111         112         113         114         115         116         117         118         119         120
 IAtWgt=           1           1          16          12           1           1          12           1           1          16
 AtmWgt=   1.0078250   1.0078250  15.9949146  12.0000000   1.0078250   1.0078250  12.0000000   1.0078250   1.0078250  15.9949146
 NucSpn=           1           1           0           0           1           1           0           1           1           0
 AtZEff=  -0.0000000  -0.0000000  -0.0000000  -0.0000000  -0.0000000  -0.0000000  -0.0000000  -0.0000000  -0.0000000  -0.0000000
 NQMom=    0.0000000   0.0000000   0.0000000   0.0000000   0.0000000   0.0000000   0.0000000   0.0000000   0.0000000   0.0000000
 NMagM=    2.7928460   2.7928460   0.0000000   0.0000000   2.7928460   2.7928460   0.0000000   2.7928460   2.7928460   0.0000000
 AtZNuc=   1.0000000   1.0000000   8.0000000   6.0000000   1.0000000   1.0000000   6.0000000   1.0000000   1.0000000   8.0000000

  Atom       121         122         123         124         125         126         127         128         129         130
 IAtWgt=          12           1           1           1          12           1           1           1          12           1
 AtmWgt=  12.0000000   1.0078250   1.0078250   1.0078250  12.0000000   1.0078250   1.0078250   1.0078250  12.0000000   1.0078250
 NucSpn=           0           1           1           1           0           1           1           1           0           1
 AtZEff=  -0.0000000  -0.0000000  -0.0000000  -0.0000000  -0.0000000  -0.0000000  -0.0000000  -0.0000000  -0.0000000  -0.0000000
 NQMom=    0.0000000   0.0000000   0.0000000   0.0000000   0.0000000   0.0000000   0.0000000   0.0000000   0.0000000   0.0000000
 NMagM=    0.0000000   2.7928460   2.7928460   2.7928460   0.0000000   2.7928460   2.7928460   2.7928460   0.0000000   2.7928460
 AtZNuc=   6.0000000   1.0000000   1.0000000   1.0000000   6.0000000   1.0000000   1.0000000   1.0000000   6.0000000   1.0000000

  Atom       131         132
 IAtWgt=           1           1
 AtmWgt=   1.0078250   1.0078250
 NucSpn=           1           1
 AtZEff=  -0.0000000  -0.0000000
 NQMom=    0.0000000   0.0000000
 NMagM=    2.7928460   2.7928460
 AtZNuc=   1.0000000   1.0000000
 Leave Link  101 at Tue Jan 14 08:55:50 2020, MaxMem=  6710886400 cpu:               8.3 elap:               0.6
 (Enter /apps/gaussian/g16-a03/l103.exe)

 GradGradGradGradGradGradGradGradGradGradGradGradGradGradGradGradGradGrad
 Berny optimization.
 Initialization pass.
                           ----------------------------
                           !    Initial Parameters    !
                           ! (Angstroms and Degrees)  !
 --------------------------                            --------------------------
 ! Name  Definition              Value          Derivative Info.                !
 --------------------------------------------------------------------------------
 ! R1    R(1,2)                  1.3895         estimate D2E/DX2                !
 ! R2    R(1,5)                  1.8342         estimate D2E/DX2                !
 ! R3    R(1,8)                  1.4187         estimate D2E/DX2                !
 ! R4    R(2,3)                  1.416          estimate D2E/DX2                !
 ! R5    R(2,6)                  1.39           estimate D2E/DX2                !
 ! R6    R(3,4)                  1.3786         estimate D2E/DX2                !
 ! R7    R(3,7)                  1.0786         estimate D2E/DX2                !
 ! R8    R(4,5)                  1.8287         estimate D2E/DX2                !
 ! R9    R(4,67)                 1.424          estimate D2E/DX2                !
 ! R10   R(6,125)                1.43           estimate D2E/DX2                !
 ! R11   R(8,9)                  1.3886         estimate D2E/DX2                !
 ! R12   R(8,12)                 1.835          estimate D2E/DX2                !
 ! R13   R(9,10)                 1.416          estimate D2E/DX2                !
 ! R14   R(9,13)                 1.39           estimate D2E/DX2                !
 ! R15   R(10,11)                1.3782         estimate D2E/DX2                !
 ! R16   R(10,14)                1.0792         estimate D2E/DX2                !
 ! R17   R(11,12)                1.8279         estimate D2E/DX2                !
 ! R18   R(11,22)                1.4262         estimate D2E/DX2                !
 ! R19   R(13,15)                1.4539         estimate D2E/DX2                !
 ! R20   R(15,16)                1.0843         estimate D2E/DX2                !
 ! R21   R(15,17)                1.0915         estimate D2E/DX2                !
 ! R22   R(15,18)                1.0923         estimate D2E/DX2                !
 ! R23   R(19,20)                1.385          estimate D2E/DX2                !
 ! R24   R(19,23)                1.8328         estimate D2E/DX2                !
 ! R25   R(19,26)                1.4249         estimate D2E/DX2                !
 ! R26   R(20,21)                1.418          estimate D2E/DX2                !
 ! R27   R(20,24)                1.3908         estimate D2E/DX2                !
 ! R28   R(21,22)                1.3768         estimate D2E/DX2                !
 ! R29   R(21,25)                1.0789         estimate D2E/DX2                !
 ! R30   R(22,23)                1.8279         estimate D2E/DX2                !
 ! R31   R(24,33)                1.4531         estimate D2E/DX2                !
 ! R32   R(26,27)                1.3846         estimate D2E/DX2                !
 ! R33   R(26,30)                1.8356         estimate D2E/DX2                !
 ! R34   R(27,28)                1.4301         estimate D2E/DX2                !
 ! R35   R(27,31)                1.3915         estimate D2E/DX2                !
 ! R36   R(28,29)                1.3608         estimate D2E/DX2                !
 ! R37   R(28,32)                1.0787         estimate D2E/DX2                !
 ! R38   R(29,30)                1.7975         estimate D2E/DX2                !
 ! R39   R(29,41)                1.075          estimate D2E/DX2                !
 ! R40   R(31,37)                1.4526         estimate D2E/DX2                !
 ! R41   R(33,34)                1.0924         estimate D2E/DX2                !
 ! R42   R(33,35)                1.0924         estimate D2E/DX2                !
 ! R43   R(33,36)                1.0844         estimate D2E/DX2                !
 ! R44   R(37,38)                1.0848         estimate D2E/DX2                !
 ! R45   R(37,39)                1.0923         estimate D2E/DX2                !
 ! R46   R(37,40)                1.0923         estimate D2E/DX2                !
 ! R47   R(42,43)                1.3846         estimate D2E/DX2                !
 ! R48   R(42,46)                1.8356         estimate D2E/DX2                !
 ! R49   R(42,49)                1.4249         estimate D2E/DX2                !
 ! R50   R(43,44)                1.4301         estimate D2E/DX2                !
 ! R51   R(43,47)                1.3915         estimate D2E/DX2                !
 ! R52   R(44,45)                1.3608         estimate D2E/DX2                !
 ! R53   R(44,48)                1.0787         estimate D2E/DX2                !
 ! R54   R(45,46)                1.7975         estimate D2E/DX2                !
 ! R55   R(45,56)                1.075          estimate D2E/DX2                !
 ! R56   R(47,100)               1.3567         estimate D2E/DX2                !
 ! R57   R(49,50)                1.385          estimate D2E/DX2                !
 ! R58   R(49,53)                1.8328         estimate D2E/DX2                !
 ! R59   R(50,51)                1.418          estimate D2E/DX2                !
 ! R60   R(50,54)                1.3908         estimate D2E/DX2                !
 ! R61   R(51,52)                1.3768         estimate D2E/DX2                !
 ! R62   R(51,55)                1.0789         estimate D2E/DX2                !
 ! R63   R(52,53)                1.8279         estimate D2E/DX2                !
 ! R64   R(52,60)                1.4262         estimate D2E/DX2                !
 ! R65   R(54,75)                1.3415         estimate D2E/DX2                !
 ! R66   R(57,58)                1.3886         estimate D2E/DX2                !
 ! R67   R(57,61)                1.835          estimate D2E/DX2                !
 ! R68   R(57,64)                1.4187         estimate D2E/DX2                !
 ! R69   R(58,59)                1.416          estimate D2E/DX2                !
 ! R70   R(58,62)                1.39           estimate D2E/DX2                !
 ! R71   R(59,60)                1.3782         estimate D2E/DX2                !
 ! R72   R(59,63)                1.0792         estimate D2E/DX2                !
 ! R73   R(60,61)                1.8279         estimate D2E/DX2                !
 ! R74   R(62,71)                1.4539         estimate D2E/DX2                !
 ! R75   R(64,65)                1.3895         estimate D2E/DX2                !
 ! R76   R(64,68)                1.8342         estimate D2E/DX2                !
 ! R77   R(65,66)                1.416          estimate D2E/DX2                !
 ! R78   R(65,69)                1.39           estimate D2E/DX2                !
 ! R79   R(66,67)                1.3786         estimate D2E/DX2                !
 ! R80   R(66,70)                1.0786         estimate D2E/DX2                !
 ! R81   R(67,68)                1.8287         estimate D2E/DX2                !
 ! R82   R(69,129)               1.43           estimate D2E/DX2                !
 ! R83   R(71,72)                1.0923         estimate D2E/DX2                !
 ! R84   R(71,73)                1.0923         estimate D2E/DX2                !
 ! R85   R(71,74)                1.0843         estimate D2E/DX2                !
 ! R86   R(75,76)                1.0945         estimate D2E/DX2                !
 ! R87   R(75,77)                1.0953         estimate D2E/DX2                !
 ! R88   R(75,78)                1.5176         estimate D2E/DX2                !
 ! R89   R(78,79)                1.099          estimate D2E/DX2                !
 ! R90   R(78,80)                1.099          estimate D2E/DX2                !
 ! R91   R(78,81)                1.4137         estimate D2E/DX2                !
 ! R92   R(81,82)                1.4173         estimate D2E/DX2                !
 ! R93   R(82,83)                1.0987         estimate D2E/DX2                !
 ! R94   R(82,84)                1.0987         estimate D2E/DX2                !
 ! R95   R(82,85)                1.519          estimate D2E/DX2                !
 ! R96   R(85,86)                1.0999         estimate D2E/DX2                !
 ! R97   R(85,87)                1.0999         estimate D2E/DX2                !
 ! R98   R(85,88)                1.4139         estimate D2E/DX2                !
 ! R99   R(88,89)                1.4162         estimate D2E/DX2                !
 ! R100  R(89,90)                1.098          estimate D2E/DX2                !
 ! R101  R(89,91)                1.0995         estimate D2E/DX2                !
 ! R102  R(89,92)                1.5179         estimate D2E/DX2                !
 ! R103  R(92,93)                1.0993         estimate D2E/DX2                !
 ! R104  R(92,94)                1.1001         estimate D2E/DX2                !
 ! R105  R(92,95)                1.4151         estimate D2E/DX2                !
 ! R106  R(95,96)                1.4126         estimate D2E/DX2                !
 ! R107  R(96,97)                1.1            estimate D2E/DX2                !
 ! R108  R(96,98)                1.0901         estimate D2E/DX2                !
 ! R109  R(96,99)                1.1008         estimate D2E/DX2                !
 ! R110  R(100,101)              1.0953         estimate D2E/DX2                !
 ! R111  R(100,102)              1.0961         estimate D2E/DX2                !
 ! R112  R(100,103)              1.5177         estimate D2E/DX2                !
 ! R113  R(103,104)              1.0989         estimate D2E/DX2                !
 ! R114  R(103,105)              1.0989         estimate D2E/DX2                !
 ! R115  R(103,106)              1.4147         estimate D2E/DX2                !
 ! R116  R(106,107)              1.4177         estimate D2E/DX2                !
 ! R117  R(107,108)              1.0992         estimate D2E/DX2                !
 ! R118  R(107,109)              1.0992         estimate D2E/DX2                !
 ! R119  R(107,110)              1.5181         estimate D2E/DX2                !
 ! R120  R(110,111)              1.0998         estimate D2E/DX2                !
 ! R121  R(110,112)              1.0998         estimate D2E/DX2                !
 ! R122  R(110,113)              1.4136         estimate D2E/DX2                !
 ! R123  R(113,114)              1.4168         estimate D2E/DX2                !
 ! R124  R(114,115)              1.0985         estimate D2E/DX2                !
 ! R125  R(114,116)              1.0994         estimate D2E/DX2                !
 ! R126  R(114,117)              1.5182         estimate D2E/DX2                !
 ! R127  R(117,118)              1.0992         estimate D2E/DX2                !
 ! R128  R(117,119)              1.1            estimate D2E/DX2                !
 ! R129  R(117,120)              1.4147         estimate D2E/DX2                !
 ! R130  R(120,121)              1.4119         estimate D2E/DX2                !
 ! R131  R(121,122)              1.0997         estimate D2E/DX2                !
 ! R132  R(121,123)              1.0912         estimate D2E/DX2                !
 ! R133  R(121,124)              1.1005         estimate D2E/DX2                !
 ! R134  R(125,126)              1.07           estimate D2E/DX2                !
 ! R135  R(125,127)              1.07           estimate D2E/DX2                !
 ! R136  R(125,128)              1.07           estimate D2E/DX2                !
 ! R137  R(129,130)              1.07           estimate D2E/DX2                !
 ! R138  R(129,131)              1.07           estimate D2E/DX2                !
 ! R139  R(129,132)              1.07           estimate D2E/DX2                !
 ! A1    A(2,1,5)              108.8587         estimate D2E/DX2                !
 ! A2    A(2,1,8)              129.0662         estimate D2E/DX2                !
 ! A3    A(5,1,8)              122.0751         estimate D2E/DX2                !
 ! A4    A(1,2,3)              116.0385         estimate D2E/DX2                !
 ! A5    A(1,2,6)              118.4499         estimate D2E/DX2                !
 ! A6    A(3,2,6)              125.5116         estimate D2E/DX2                !
 ! A7    A(2,3,4)              114.4719         estimate D2E/DX2                !
 ! A8    A(2,3,7)              123.4106         estimate D2E/DX2                !
 ! A9    A(4,3,7)              122.1176         estimate D2E/DX2                !
 ! A10   A(3,4,5)              110.3201         estimate D2E/DX2                !
 ! A11   A(3,4,67)             129.375          estimate D2E/DX2                !
 ! A12   A(5,4,67)             120.3048         estimate D2E/DX2                !
 ! A13   A(1,5,4)               90.3109         estimate D2E/DX2                !
 ! A14   A(2,6,125)            115.2373         estimate D2E/DX2                !
 ! A15   A(1,8,9)              129.0845         estimate D2E/DX2                !
 ! A16   A(1,8,12)             122.0531         estimate D2E/DX2                !
 ! A17   A(9,8,12)             108.8623         estimate D2E/DX2                !
 ! A18   A(8,9,10)             116.0568         estimate D2E/DX2                !
 ! A19   A(8,9,13)             118.4316         estimate D2E/DX2                !
 ! A20   A(10,9,13)            125.5116         estimate D2E/DX2                !
 ! A21   A(9,10,11)            114.4339         estimate D2E/DX2                !
 ! A22   A(9,10,14)            123.4547         estimate D2E/DX2                !
 ! A23   A(11,10,14)           122.1114         estimate D2E/DX2                !
 ! A24   A(10,11,12)           110.38           estimate D2E/DX2                !
 ! A25   A(10,11,22)           129.3548         estimate D2E/DX2                !
 ! A26   A(12,11,22)           120.2652         estimate D2E/DX2                !
 ! A27   A(8,12,11)             90.2669         estimate D2E/DX2                !
 ! A28   A(9,13,15)            118.7405         estimate D2E/DX2                !
 ! A29   A(13,15,16)           105.1143         estimate D2E/DX2                !
 ! A30   A(13,15,17)           111.0247         estimate D2E/DX2                !
 ! A31   A(13,15,18)           111.0082         estimate D2E/DX2                !
 ! A32   A(16,15,17)           109.7935         estimate D2E/DX2                !
 ! A33   A(16,15,18)           109.7781         estimate D2E/DX2                !
 ! A34   A(17,15,18)           110.0142         estimate D2E/DX2                !
 ! A35   A(20,19,23)           108.952          estimate D2E/DX2                !
 ! A36   A(20,19,26)           129.1642         estimate D2E/DX2                !
 ! A37   A(23,19,26)           121.8838         estimate D2E/DX2                !
 ! A38   A(19,20,21)           116.0266         estimate D2E/DX2                !
 ! A39   A(19,20,24)           118.5668         estimate D2E/DX2                !
 ! A40   A(21,20,24)           125.4066         estimate D2E/DX2                !
 ! A41   A(20,21,22)           114.4246         estimate D2E/DX2                !
 ! A42   A(20,21,25)           123.4182         estimate D2E/DX2                !
 ! A43   A(22,21,25)           122.1572         estimate D2E/DX2                !
 ! A44   A(11,22,21)           129.4268         estimate D2E/DX2                !
 ! A45   A(11,22,23)           120.2652         estimate D2E/DX2                !
 ! A46   A(21,22,23)           110.308          estimate D2E/DX2                !
 ! A47   A(19,23,22)            90.2887         estimate D2E/DX2                !
 ! A48   A(20,24,33)           118.8351         estimate D2E/DX2                !
 ! A49   A(19,26,27)           129.0346         estimate D2E/DX2                !
 ! A50   A(19,26,30)           122.0607         estimate D2E/DX2                !
 ! A51   A(27,26,30)           108.9047         estimate D2E/DX2                !
 ! A52   A(26,27,28)           115.5785         estimate D2E/DX2                !
 ! A53   A(26,27,31)           118.8686         estimate D2E/DX2                !
 ! A54   A(28,27,31)           125.5529         estimate D2E/DX2                !
 ! A55   A(27,28,29)           113.3006         estimate D2E/DX2                !
 ! A56   A(27,28,32)           123.7479         estimate D2E/DX2                !
 ! A57   A(29,28,32)           122.9515         estimate D2E/DX2                !
 ! A58   A(28,29,30)           112.3505         estimate D2E/DX2                !
 ! A59   A(28,29,41)           128.6119         estimate D2E/DX2                !
 ! A60   A(30,29,41)           119.0377         estimate D2E/DX2                !
 ! A61   A(26,30,29)            89.8657         estimate D2E/DX2                !
 ! A62   A(27,31,37)           118.7781         estimate D2E/DX2                !
 ! A63   A(24,33,34)           111.0222         estimate D2E/DX2                !
 ! A64   A(24,33,35)           111.0222         estimate D2E/DX2                !
 ! A65   A(24,33,36)           105.1106         estimate D2E/DX2                !
 ! A66   A(34,33,35)           110.0254         estimate D2E/DX2                !
 ! A67   A(34,33,36)           109.7757         estimate D2E/DX2                !
 ! A68   A(35,33,36)           109.7757         estimate D2E/DX2                !
 ! A69   A(31,37,38)           105.1449         estimate D2E/DX2                !
 ! A70   A(31,37,39)           111.084          estimate D2E/DX2                !
 ! A71   A(31,37,40)           111.084          estimate D2E/DX2                !
 ! A72   A(38,37,39)           109.6851         estimate D2E/DX2                !
 ! A73   A(38,37,40)           109.6851         estimate D2E/DX2                !
 ! A74   A(39,37,40)           110.0442         estimate D2E/DX2                !
 ! A75   A(43,42,46)           108.9047         estimate D2E/DX2                !
 ! A76   A(43,42,49)           129.0346         estimate D2E/DX2                !
 ! A77   A(46,42,49)           122.0607         estimate D2E/DX2                !
 ! A78   A(42,43,44)           115.5785         estimate D2E/DX2                !
 ! A79   A(42,43,47)           118.8686         estimate D2E/DX2                !
 ! A80   A(44,43,47)           125.5529         estimate D2E/DX2                !
 ! A81   A(43,44,45)           113.3006         estimate D2E/DX2                !
 ! A82   A(43,44,48)           123.7479         estimate D2E/DX2                !
 ! A83   A(45,44,48)           122.9515         estimate D2E/DX2                !
 ! A84   A(44,45,46)           112.3505         estimate D2E/DX2                !
 ! A85   A(44,45,56)           128.6119         estimate D2E/DX2                !
 ! A86   A(46,45,56)           119.0377         estimate D2E/DX2                !
 ! A87   A(42,46,45)            89.8657         estimate D2E/DX2                !
 ! A88   A(43,47,100)           92.6214         estimate D2E/DX2                !
 ! A89   A(42,49,50)           129.1642         estimate D2E/DX2                !
 ! A90   A(42,49,53)           121.8838         estimate D2E/DX2                !
 ! A91   A(50,49,53)           108.952          estimate D2E/DX2                !
 ! A92   A(49,50,51)           116.0266         estimate D2E/DX2                !
 ! A93   A(49,50,54)           118.5668         estimate D2E/DX2                !
 ! A94   A(51,50,54)           125.4066         estimate D2E/DX2                !
 ! A95   A(50,51,52)           114.4246         estimate D2E/DX2                !
 ! A96   A(50,51,55)           123.4182         estimate D2E/DX2                !
 ! A97   A(52,51,55)           122.1572         estimate D2E/DX2                !
 ! A98   A(51,52,53)           110.308          estimate D2E/DX2                !
 ! A99   A(51,52,60)           129.4268         estimate D2E/DX2                !
 ! A100  A(53,52,60)           120.2652         estimate D2E/DX2                !
 ! A101  A(49,53,52)            90.2887         estimate D2E/DX2                !
 ! A102  A(50,54,75)           115.3398         estimate D2E/DX2                !
 ! A103  A(58,57,61)           108.8623         estimate D2E/DX2                !
 ! A104  A(58,57,64)           129.0845         estimate D2E/DX2                !
 ! A105  A(61,57,64)           122.0531         estimate D2E/DX2                !
 ! A106  A(57,58,59)           116.0568         estimate D2E/DX2                !
 ! A107  A(57,58,62)           118.4316         estimate D2E/DX2                !
 ! A108  A(59,58,62)           125.5116         estimate D2E/DX2                !
 ! A109  A(58,59,60)           114.4339         estimate D2E/DX2                !
 ! A110  A(58,59,63)           123.4547         estimate D2E/DX2                !
 ! A111  A(60,59,63)           122.1114         estimate D2E/DX2                !
 ! A112  A(52,60,59)           129.3548         estimate D2E/DX2                !
 ! A113  A(52,60,61)           120.2652         estimate D2E/DX2                !
 ! A114  A(59,60,61)           110.38           estimate D2E/DX2                !
 ! A115  A(57,61,60)            90.2669         estimate D2E/DX2                !
 ! A116  A(58,62,71)           118.7405         estimate D2E/DX2                !
 ! A117  A(57,64,65)           129.0662         estimate D2E/DX2                !
 ! A118  A(57,64,68)           122.0751         estimate D2E/DX2                !
 ! A119  A(65,64,68)           108.8587         estimate D2E/DX2                !
 ! A120  A(64,65,66)           116.0385         estimate D2E/DX2                !
 ! A121  A(64,65,69)           118.4499         estimate D2E/DX2                !
 ! A122  A(66,65,69)           125.5116         estimate D2E/DX2                !
 ! A123  A(65,66,67)           114.4719         estimate D2E/DX2                !
 ! A124  A(65,66,70)           123.4106         estimate D2E/DX2                !
 ! A125  A(67,66,70)           122.1176         estimate D2E/DX2                !
 ! A126  A(4,67,66)            129.375          estimate D2E/DX2                !
 ! A127  A(4,67,68)            120.3048         estimate D2E/DX2                !
 ! A128  A(66,67,68)           110.3201         estimate D2E/DX2                !
 ! A129  A(64,68,67)            90.3109         estimate D2E/DX2                !
 ! A130  A(65,69,129)          111.2249         estimate D2E/DX2                !
 ! A131  A(62,71,72)           111.0082         estimate D2E/DX2                !
 ! A132  A(62,71,73)           111.0082         estimate D2E/DX2                !
 ! A133  A(62,71,74)           105.1143         estimate D2E/DX2                !
 ! A134  A(72,71,73)           110.0442         estimate D2E/DX2                !
 ! A135  A(72,71,74)           109.7781         estimate D2E/DX2                !
 ! A136  A(73,71,74)           109.7781         estimate D2E/DX2                !
 ! A137  A(54,75,76)           123.3312         estimate D2E/DX2                !
 ! A138  A(54,75,77)           123.3033         estimate D2E/DX2                !
 ! A139  A(54,75,78)           114.1016         estimate D2E/DX2                !
 ! A140  A(76,75,77)           108.8365         estimate D2E/DX2                !
 ! A141  A(76,75,78)            87.1882         estimate D2E/DX2                !
 ! A142  A(77,75,78)            87.1902         estimate D2E/DX2                !
 ! A143  A(75,78,79)           109.8465         estimate D2E/DX2                !
 ! A144  A(75,78,80)           109.8465         estimate D2E/DX2                !
 ! A145  A(75,78,81)           106.8298         estimate D2E/DX2                !
 ! A146  A(79,78,80)           107.9763         estimate D2E/DX2                !
 ! A147  A(79,78,81)           111.1722         estimate D2E/DX2                !
 ! A148  A(80,78,81)           111.1722         estimate D2E/DX2                !
 ! A149  A(78,81,82)           113.462          estimate D2E/DX2                !
 ! A150  A(81,82,83)           110.9248         estimate D2E/DX2                !
 ! A151  A(81,82,84)           110.9248         estimate D2E/DX2                !
 ! A152  A(81,82,85)           107.5088         estimate D2E/DX2                !
 ! A153  A(83,82,84)           108.0216         estimate D2E/DX2                !
 ! A154  A(83,82,85)           109.7297         estimate D2E/DX2                !
 ! A155  A(84,82,85)           109.7297         estimate D2E/DX2                !
 ! A156  A(82,85,86)           109.7339         estimate D2E/DX2                !
 ! A157  A(82,85,87)           109.7339         estimate D2E/DX2                !
 ! A158  A(82,85,88)           107.4197         estimate D2E/DX2                !
 ! A159  A(86,85,87)           107.8473         estimate D2E/DX2                !
 ! A160  A(86,85,88)           111.0531         estimate D2E/DX2                !
 ! A161  A(87,85,88)           111.0531         estimate D2E/DX2                !
 ! A162  A(85,88,89)           113.4394         estimate D2E/DX2                !
 ! A163  A(88,89,90)           110.9719         estimate D2E/DX2                !
 ! A164  A(88,89,91)           111.0204         estimate D2E/DX2                !
 ! A165  A(88,89,92)           107.5922         estimate D2E/DX2                !
 ! A166  A(90,89,91)           107.927          estimate D2E/DX2                !
 ! A167  A(90,89,92)           109.6801         estimate D2E/DX2                !
 ! A168  A(91,89,92)           109.6454         estimate D2E/DX2                !
 ! A169  A(89,92,93)           109.6846         estimate D2E/DX2                !
 ! A170  A(89,92,94)           109.6695         estimate D2E/DX2                !
 ! A171  A(89,92,95)           107.514          estimate D2E/DX2                !
 ! A172  A(93,92,94)           107.7977         estimate D2E/DX2                !
 ! A173  A(93,92,95)           111.0944         estimate D2E/DX2                !
 ! A174  A(94,92,95)           111.0782         estimate D2E/DX2                !
 ! A175  A(92,95,96)           112.934          estimate D2E/DX2                !
 ! A176  A(95,96,97)           111.621          estimate D2E/DX2                !
 ! A177  A(95,96,98)           107.2105         estimate D2E/DX2                !
 ! A178  A(95,96,99)           111.6042         estimate D2E/DX2                !
 ! A179  A(97,96,98)           108.9758         estimate D2E/DX2                !
 ! A180  A(97,96,99)           108.4061         estimate D2E/DX2                !
 ! A181  A(98,96,99)           108.9613         estimate D2E/DX2                !
 ! A182  A(47,100,101)          86.9545         estimate D2E/DX2                !
 ! A183  A(47,100,102)          86.9568         estimate D2E/DX2                !
 ! A184  A(47,100,103)          85.6311         estimate D2E/DX2                !
 ! A185  A(101,100,102)        108.7233         estimate D2E/DX2                !
 ! A186  A(101,100,103)        125.0802         estimate D2E/DX2                !
 ! A187  A(102,100,103)        125.0504         estimate D2E/DX2                !
 ! A188  A(100,103,104)        109.894          estimate D2E/DX2                !
 ! A189  A(100,103,105)        109.894          estimate D2E/DX2                !
 ! A190  A(100,103,106)        106.7887         estimate D2E/DX2                !
 ! A191  A(104,103,105)        107.9892         estimate D2E/DX2                !
 ! A192  A(104,103,106)        111.1398         estimate D2E/DX2                !
 ! A193  A(105,103,106)        111.1398         estimate D2E/DX2                !
 ! A194  A(103,106,107)        113.4656         estimate D2E/DX2                !
 ! A195  A(106,107,108)        110.9284         estimate D2E/DX2                !
 ! A196  A(106,107,109)        110.9284         estimate D2E/DX2                !
 ! A197  A(106,107,110)        107.5103         estimate D2E/DX2                !
 ! A198  A(108,107,109)        107.9471         estimate D2E/DX2                !
 ! A199  A(108,107,110)        109.7636         estimate D2E/DX2                !
 ! A200  A(109,107,110)        109.7636         estimate D2E/DX2                !
 ! A201  A(107,110,111)        109.7418         estimate D2E/DX2                !
 ! A202  A(107,110,112)        109.7418         estimate D2E/DX2                !
 ! A203  A(107,110,113)        107.3938         estimate D2E/DX2                !
 ! A204  A(111,110,112)        107.8595         estimate D2E/DX2                !
 ! A205  A(111,110,113)        111.0522         estimate D2E/DX2                !
 ! A206  A(112,110,113)        111.0522         estimate D2E/DX2                !
 ! A207  A(110,113,114)        113.4469         estimate D2E/DX2                !
 ! A208  A(113,114,115)        110.9854         estimate D2E/DX2                !
 ! A209  A(113,114,116)        111.0156         estimate D2E/DX2                !
 ! A210  A(113,114,117)        107.6073         estimate D2E/DX2                !
 ! A211  A(115,114,116)        107.8977         estimate D2E/DX2                !
 ! A212  A(115,114,117)        109.6946         estimate D2E/DX2                !
 ! A213  A(116,114,117)        109.6366         estimate D2E/DX2                !
 ! A214  A(114,117,118)        109.6771         estimate D2E/DX2                !
 ! A215  A(114,117,119)        109.6621         estimate D2E/DX2                !
 ! A216  A(114,117,120)        107.5095         estimate D2E/DX2                !
 ! A217  A(118,117,119)        107.8094         estimate D2E/DX2                !
 ! A218  A(118,117,120)        111.0981         estimate D2E/DX2                !
 ! A219  A(119,117,120)        111.0818         estimate D2E/DX2                !
 ! A220  A(117,120,121)        112.9533         estimate D2E/DX2                !
 ! A221  A(120,121,122)        111.5909         estimate D2E/DX2                !
 ! A222  A(120,121,123)        107.1798         estimate D2E/DX2                !
 ! A223  A(120,121,124)        111.5742         estimate D2E/DX2                !
 ! A224  A(122,121,123)        109.0011         estimate D2E/DX2                !
 ! A225  A(122,121,124)        108.4479         estimate D2E/DX2                !
 ! A226  A(123,121,124)        108.9866         estimate D2E/DX2                !
 ! A227  A(6,125,126)          109.4712         estimate D2E/DX2                !
 ! A228  A(6,125,127)          109.4712         estimate D2E/DX2                !
 ! A229  A(6,125,128)          109.4712         estimate D2E/DX2                !
 ! A230  A(126,125,127)        109.4713         estimate D2E/DX2                !
 ! A231  A(126,125,128)        109.4712         estimate D2E/DX2                !
 ! A232  A(127,125,128)        109.4712         estimate D2E/DX2                !
 ! A233  A(69,129,130)         109.4712         estimate D2E/DX2                !
 ! A234  A(69,129,131)         109.4712         estimate D2E/DX2                !
 ! A235  A(69,129,132)         109.4712         estimate D2E/DX2                !
 ! A236  A(130,129,131)        109.4713         estimate D2E/DX2                !
 ! A237  A(130,129,132)        109.4712         estimate D2E/DX2                !
 ! A238  A(131,129,132)        109.4712         estimate D2E/DX2                !
 ! D1    D(5,1,2,3)              0.0            estimate D2E/DX2                !
 ! D2    D(5,1,2,6)            180.0            estimate D2E/DX2                !
 ! D3    D(8,1,2,3)            180.0            estimate D2E/DX2                !
 ! D4    D(8,1,2,6)              0.0            estimate D2E/DX2                !
 ! D5    D(2,1,5,4)              0.0            estimate D2E/DX2                !
 ! D6    D(8,1,5,4)            180.0            estimate D2E/DX2                !
 ! D7    D(2,1,8,9)            180.0            estimate D2E/DX2                !
 ! D8    D(2,1,8,12)             0.0            estimate D2E/DX2                !
 ! D9    D(5,1,8,9)              0.0            estimate D2E/DX2                !
 ! D10   D(5,1,8,12)           180.0            estimate D2E/DX2                !
 ! D11   D(1,2,3,4)              0.0            estimate D2E/DX2                !
 ! D12   D(1,2,3,7)            180.0            estimate D2E/DX2                !
 ! D13   D(6,2,3,4)            180.0            estimate D2E/DX2                !
 ! D14   D(6,2,3,7)              0.0            estimate D2E/DX2                !
 ! D15   D(1,2,6,125)         -177.9523         estimate D2E/DX2                !
 ! D16   D(3,2,6,125)            2.0477         estimate D2E/DX2                !
 ! D17   D(2,3,4,5)              0.0            estimate D2E/DX2                !
 ! D18   D(2,3,4,67)           180.0            estimate D2E/DX2                !
 ! D19   D(7,3,4,5)            180.0            estimate D2E/DX2                !
 ! D20   D(7,3,4,67)             0.0            estimate D2E/DX2                !
 ! D21   D(3,4,5,1)              0.0            estimate D2E/DX2                !
 ! D22   D(67,4,5,1)           180.0            estimate D2E/DX2                !
 ! D23   D(3,4,67,66)          180.0            estimate D2E/DX2                !
 ! D24   D(3,4,67,68)            0.0            estimate D2E/DX2                !
 ! D25   D(5,4,67,66)            0.0            estimate D2E/DX2                !
 ! D26   D(5,4,67,68)          180.0            estimate D2E/DX2                !
 ! D27   D(2,6,125,126)        -60.9192         estimate D2E/DX2                !
 ! D28   D(2,6,125,127)         59.0808         estimate D2E/DX2                !
 ! D29   D(2,6,125,128)        179.0808         estimate D2E/DX2                !
 ! D30   D(1,8,9,10)           180.0            estimate D2E/DX2                !
 ! D31   D(1,8,9,13)             0.0            estimate D2E/DX2                !
 ! D32   D(12,8,9,10)            0.0            estimate D2E/DX2                !
 ! D33   D(12,8,9,13)          180.0            estimate D2E/DX2                !
 ! D34   D(1,8,12,11)          180.0            estimate D2E/DX2                !
 ! D35   D(9,8,12,11)            0.0            estimate D2E/DX2                !
 ! D36   D(8,9,10,11)            0.0            estimate D2E/DX2                !
 ! D37   D(8,9,10,14)          180.0            estimate D2E/DX2                !
 ! D38   D(13,9,10,11)         180.0            estimate D2E/DX2                !
 ! D39   D(13,9,10,14)           0.0            estimate D2E/DX2                !
 ! D40   D(8,9,13,15)          180.0            estimate D2E/DX2                !
 ! D41   D(10,9,13,15)           0.0            estimate D2E/DX2                !
 ! D42   D(9,10,11,12)           0.0            estimate D2E/DX2                !
 ! D43   D(9,10,11,22)         180.0            estimate D2E/DX2                !
 ! D44   D(14,10,11,12)        180.0            estimate D2E/DX2                !
 ! D45   D(14,10,11,22)          0.0            estimate D2E/DX2                !
 ! D46   D(10,11,12,8)           0.0            estimate D2E/DX2                !
 ! D47   D(22,11,12,8)         180.0            estimate D2E/DX2                !
 ! D48   D(10,11,22,21)        180.0            estimate D2E/DX2                !
 ! D49   D(10,11,22,23)          0.0            estimate D2E/DX2                !
 ! D50   D(12,11,22,21)          0.0            estimate D2E/DX2                !
 ! D51   D(12,11,22,23)        180.0            estimate D2E/DX2                !
 ! D52   D(9,13,15,16)         180.0            estimate D2E/DX2                !
 ! D53   D(9,13,15,17)         -61.3411         estimate D2E/DX2                !
 ! D54   D(9,13,15,18)          61.3681         estimate D2E/DX2                !
 ! D55   D(23,19,20,21)          0.0            estimate D2E/DX2                !
 ! D56   D(23,19,20,24)        180.0            estimate D2E/DX2                !
 ! D57   D(26,19,20,21)        180.0            estimate D2E/DX2                !
 ! D58   D(26,19,20,24)          0.0            estimate D2E/DX2                !
 ! D59   D(20,19,23,22)          0.0            estimate D2E/DX2                !
 ! D60   D(26,19,23,22)        180.0            estimate D2E/DX2                !
 ! D61   D(20,19,26,27)        180.0            estimate D2E/DX2                !
 ! D62   D(20,19,26,30)          0.0            estimate D2E/DX2                !
 ! D63   D(23,19,26,27)          0.0            estimate D2E/DX2                !
 ! D64   D(23,19,26,30)        180.0            estimate D2E/DX2                !
 ! D65   D(19,20,21,22)          0.0            estimate D2E/DX2                !
 ! D66   D(19,20,21,25)        180.0            estimate D2E/DX2                !
 ! D67   D(24,20,21,22)        180.0            estimate D2E/DX2                !
 ! D68   D(24,20,21,25)          0.0            estimate D2E/DX2                !
 ! D69   D(19,20,24,33)        180.0            estimate D2E/DX2                !
 ! D70   D(21,20,24,33)          0.0            estimate D2E/DX2                !
 ! D71   D(20,21,22,11)        180.0            estimate D2E/DX2                !
 ! D72   D(20,21,22,23)          0.0            estimate D2E/DX2                !
 ! D73   D(25,21,22,11)          0.0            estimate D2E/DX2                !
 ! D74   D(25,21,22,23)        180.0            estimate D2E/DX2                !
 ! D75   D(11,22,23,19)        180.0            estimate D2E/DX2                !
 ! D76   D(21,22,23,19)          0.0            estimate D2E/DX2                !
 ! D77   D(20,24,33,34)         61.3658         estimate D2E/DX2                !
 ! D78   D(20,24,33,35)        -61.3658         estimate D2E/DX2                !
 ! D79   D(20,24,33,36)        180.0            estimate D2E/DX2                !
 ! D80   D(19,26,27,28)        180.0            estimate D2E/DX2                !
 ! D81   D(19,26,27,31)          0.0            estimate D2E/DX2                !
 ! D82   D(30,26,27,28)          0.0            estimate D2E/DX2                !
 ! D83   D(30,26,27,31)        180.0            estimate D2E/DX2                !
 ! D84   D(19,26,30,29)        180.0            estimate D2E/DX2                !
 ! D85   D(27,26,30,29)          0.0            estimate D2E/DX2                !
 ! D86   D(26,27,28,29)          0.0            estimate D2E/DX2                !
 ! D87   D(26,27,28,32)        180.0            estimate D2E/DX2                !
 ! D88   D(31,27,28,29)        180.0            estimate D2E/DX2                !
 ! D89   D(31,27,28,32)          0.0            estimate D2E/DX2                !
 ! D90   D(26,27,31,37)        180.0            estimate D2E/DX2                !
 ! D91   D(28,27,31,37)          0.0            estimate D2E/DX2                !
 ! D92   D(27,28,29,30)          0.0            estimate D2E/DX2                !
 ! D93   D(27,28,29,41)        180.0            estimate D2E/DX2                !
 ! D94   D(32,28,29,30)        180.0            estimate D2E/DX2                !
 ! D95   D(32,28,29,41)          0.0            estimate D2E/DX2                !
 ! D96   D(28,29,30,26)          0.0            estimate D2E/DX2                !
 ! D97   D(41,29,30,26)        180.0            estimate D2E/DX2                !
 ! D98   D(27,31,37,38)        180.0            estimate D2E/DX2                !
 ! D99   D(27,31,37,39)        -61.4215         estimate D2E/DX2                !
 ! D100  D(27,31,37,40)         61.4215         estimate D2E/DX2                !
 ! D101  D(46,42,43,44)          0.0            estimate D2E/DX2                !
 ! D102  D(46,42,43,47)        180.0            estimate D2E/DX2                !
 ! D103  D(49,42,43,44)        180.0            estimate D2E/DX2                !
 ! D104  D(49,42,43,47)          0.0            estimate D2E/DX2                !
 ! D105  D(43,42,46,45)          0.0            estimate D2E/DX2                !
 ! D106  D(49,42,46,45)        180.0            estimate D2E/DX2                !
 ! D107  D(43,42,49,50)        180.0            estimate D2E/DX2                !
 ! D108  D(43,42,49,53)          0.0            estimate D2E/DX2                !
 ! D109  D(46,42,49,50)          0.0            estimate D2E/DX2                !
 ! D110  D(46,42,49,53)        180.0            estimate D2E/DX2                !
 ! D111  D(42,43,44,45)          0.0            estimate D2E/DX2                !
 ! D112  D(42,43,44,48)        180.0            estimate D2E/DX2                !
 ! D113  D(47,43,44,45)        180.0            estimate D2E/DX2                !
 ! D114  D(47,43,44,48)          0.0            estimate D2E/DX2                !
 ! D115  D(42,43,47,100)       180.0            estimate D2E/DX2                !
 ! D116  D(44,43,47,100)         0.0            estimate D2E/DX2                !
 ! D117  D(43,44,45,46)          0.0            estimate D2E/DX2                !
 ! D118  D(43,44,45,56)        180.0            estimate D2E/DX2                !
 ! D119  D(48,44,45,46)        180.0            estimate D2E/DX2                !
 ! D120  D(48,44,45,56)          0.0            estimate D2E/DX2                !
 ! D121  D(44,45,46,42)          0.0            estimate D2E/DX2                !
 ! D122  D(56,45,46,42)        180.0            estimate D2E/DX2                !
 ! D123  D(43,47,100,101)       54.4595         estimate D2E/DX2                !
 ! D124  D(43,47,100,102)      -54.49           estimate D2E/DX2                !
 ! D125  D(43,47,100,103)      180.0            estimate D2E/DX2                !
 ! D126  D(42,49,50,51)        180.0            estimate D2E/DX2                !
 ! D127  D(42,49,50,54)          0.0            estimate D2E/DX2                !
 ! D128  D(53,49,50,51)          0.0            estimate D2E/DX2                !
 ! D129  D(53,49,50,54)        180.0            estimate D2E/DX2                !
 ! D130  D(42,49,53,52)        180.0            estimate D2E/DX2                !
 ! D131  D(50,49,53,52)          0.0            estimate D2E/DX2                !
 ! D132  D(49,50,51,52)          0.0            estimate D2E/DX2                !
 ! D133  D(49,50,51,55)        180.0            estimate D2E/DX2                !
 ! D134  D(54,50,51,52)        180.0            estimate D2E/DX2                !
 ! D135  D(54,50,51,55)          0.0            estimate D2E/DX2                !
 ! D136  D(49,50,54,75)        180.0            estimate D2E/DX2                !
 ! D137  D(51,50,54,75)          0.0            estimate D2E/DX2                !
 ! D138  D(50,51,52,53)          0.0            estimate D2E/DX2                !
 ! D139  D(50,51,52,60)        180.0            estimate D2E/DX2                !
 ! D140  D(55,51,52,53)        180.0            estimate D2E/DX2                !
 ! D141  D(55,51,52,60)          0.0            estimate D2E/DX2                !
 ! D142  D(51,52,53,49)          0.0            estimate D2E/DX2                !
 ! D143  D(60,52,53,49)        180.0            estimate D2E/DX2                !
 ! D144  D(51,52,60,59)        180.0            estimate D2E/DX2                !
 ! D145  D(51,52,60,61)          0.0            estimate D2E/DX2                !
 ! D146  D(53,52,60,59)          0.0            estimate D2E/DX2                !
 ! D147  D(53,52,60,61)        180.0            estimate D2E/DX2                !
 ! D148  D(50,54,75,76)         76.7097         estimate D2E/DX2                !
 ! D149  D(50,54,75,77)        -76.7241         estimate D2E/DX2                !
 ! D150  D(50,54,75,78)        180.0            estimate D2E/DX2                !
 ! D151  D(61,57,58,59)          0.0            estimate D2E/DX2                !
 ! D152  D(61,57,58,62)        180.0            estimate D2E/DX2                !
 ! D153  D(64,57,58,59)        180.0            estimate D2E/DX2                !
 ! D154  D(64,57,58,62)          0.0            estimate D2E/DX2                !
 ! D155  D(58,57,61,60)          0.0            estimate D2E/DX2                !
 ! D156  D(64,57,61,60)        180.0            estimate D2E/DX2                !
 ! D157  D(58,57,64,65)        180.0            estimate D2E/DX2                !
 ! D158  D(58,57,64,68)          0.0            estimate D2E/DX2                !
 ! D159  D(61,57,64,65)          0.0            estimate D2E/DX2                !
 ! D160  D(61,57,64,68)        180.0            estimate D2E/DX2                !
 ! D161  D(57,58,59,60)          0.0            estimate D2E/DX2                !
 ! D162  D(57,58,59,63)        180.0            estimate D2E/DX2                !
 ! D163  D(62,58,59,60)        180.0            estimate D2E/DX2                !
 ! D164  D(62,58,59,63)          0.0            estimate D2E/DX2                !
 ! D165  D(57,58,62,71)        180.0            estimate D2E/DX2                !
 ! D166  D(59,58,62,71)          0.0            estimate D2E/DX2                !
 ! D167  D(58,59,60,52)        180.0            estimate D2E/DX2                !
 ! D168  D(58,59,60,61)          0.0            estimate D2E/DX2                !
 ! D169  D(63,59,60,52)          0.0            estimate D2E/DX2                !
 ! D170  D(63,59,60,61)        180.0            estimate D2E/DX2                !
 ! D171  D(52,60,61,57)        180.0            estimate D2E/DX2                !
 ! D172  D(59,60,61,57)          0.0            estimate D2E/DX2                !
 ! D173  D(58,62,71,72)         61.3681         estimate D2E/DX2                !
 ! D174  D(58,62,71,73)        -61.3681         estimate D2E/DX2                !
 ! D175  D(58,62,71,74)        180.0            estimate D2E/DX2                !
 ! D176  D(57,64,65,66)        180.0            estimate D2E/DX2                !
 ! D177  D(57,64,65,69)          0.0            estimate D2E/DX2                !
 ! D178  D(68,64,65,66)          0.0            estimate D2E/DX2                !
 ! D179  D(68,64,65,69)        180.0            estimate D2E/DX2                !
 ! D180  D(57,64,68,67)        180.0            estimate D2E/DX2                !
 ! D181  D(65,64,68,67)          0.0            estimate D2E/DX2                !
 ! D182  D(64,65,66,67)          0.0            estimate D2E/DX2                !
 ! D183  D(64,65,66,70)        180.0            estimate D2E/DX2                !
 ! D184  D(69,65,66,67)        180.0            estimate D2E/DX2                !
 ! D185  D(69,65,66,70)          0.0            estimate D2E/DX2                !
 ! D186  D(64,65,69,129)       177.8465         estimate D2E/DX2                !
 ! D187  D(66,65,69,129)        -2.1535         estimate D2E/DX2                !
 ! D188  D(65,66,67,4)         180.0            estimate D2E/DX2                !
 ! D189  D(65,66,67,68)          0.0            estimate D2E/DX2                !
 ! D190  D(70,66,67,4)           0.0            estimate D2E/DX2                !
 ! D191  D(70,66,67,68)        180.0            estimate D2E/DX2                !
 ! D192  D(4,67,68,64)         180.0            estimate D2E/DX2                !
 ! D193  D(66,67,68,64)          0.0            estimate D2E/DX2                !
 ! D194  D(65,69,129,130)      -59.0014         estimate D2E/DX2                !
 ! D195  D(65,69,129,131)       60.9986         estimate D2E/DX2                !
 ! D196  D(65,69,129,132)     -179.0014         estimate D2E/DX2                !
 ! D197  D(54,75,78,79)        -59.3136         estimate D2E/DX2                !
 ! D198  D(54,75,78,80)         59.3136         estimate D2E/DX2                !
 ! D199  D(54,75,78,81)        180.0            estimate D2E/DX2                !
 ! D200  D(76,75,78,79)         66.1868         estimate D2E/DX2                !
 ! D201  D(76,75,78,80)       -175.186          estimate D2E/DX2                !
 ! D202  D(76,75,78,81)        -54.4996         estimate D2E/DX2                !
 ! D203  D(77,75,78,79)        175.2164         estimate D2E/DX2                !
 ! D204  D(77,75,78,80)        -66.1564         estimate D2E/DX2                !
 ! D205  D(77,75,78,81)         54.53           estimate D2E/DX2                !
 ! D206  D(75,78,81,82)        180.0            estimate D2E/DX2                !
 ! D207  D(79,78,81,82)         60.1635         estimate D2E/DX2                !
 ! D208  D(80,78,81,82)        -60.1635         estimate D2E/DX2                !
 ! D209  D(78,81,82,83)        -60.0266         estimate D2E/DX2                !
 ! D210  D(78,81,82,84)         60.0266         estimate D2E/DX2                !
 ! D211  D(78,81,82,85)        180.0            estimate D2E/DX2                !
 ! D212  D(81,82,85,86)         59.1666         estimate D2E/DX2                !
 ! D213  D(81,82,85,87)        -59.1666         estimate D2E/DX2                !
 ! D214  D(81,82,85,88)        180.0            estimate D2E/DX2                !
 ! D215  D(83,82,85,86)        -61.5629         estimate D2E/DX2                !
 ! D216  D(83,82,85,87)       -179.8962         estimate D2E/DX2                !
 ! D217  D(83,82,85,88)         59.2705         estimate D2E/DX2                !
 ! D218  D(84,82,85,86)        179.8962         estimate D2E/DX2                !
 ! D219  D(84,82,85,87)         61.5629         estimate D2E/DX2                !
 ! D220  D(84,82,85,88)        -59.2705         estimate D2E/DX2                !
 ! D221  D(82,85,88,89)        180.0            estimate D2E/DX2                !
 ! D222  D(86,85,88,89)        -60.0021         estimate D2E/DX2                !
 ! D223  D(87,85,88,89)         60.0021         estimate D2E/DX2                !
 ! D224  D(85,88,89,90)         60.0075         estimate D2E/DX2                !
 ! D225  D(85,88,89,91)        -60.0213         estimate D2E/DX2                !
 ! D226  D(85,88,89,92)        180.0            estimate D2E/DX2                !
 ! D227  D(88,89,92,93)         59.0881         estimate D2E/DX2                !
 ! D228  D(88,89,92,94)        -59.1165         estimate D2E/DX2                !
 ! D229  D(88,89,92,95)        180.0            estimate D2E/DX2                !
 ! D230  D(90,89,92,93)        179.8963         estimate D2E/DX2                !
 ! D231  D(90,89,92,94)         61.6916         estimate D2E/DX2                !
 ! D232  D(90,89,92,95)        -59.1918         estimate D2E/DX2                !
 ! D233  D(91,89,92,93)        -61.7586         estimate D2E/DX2                !
 ! D234  D(91,89,92,94)       -179.9632         estimate D2E/DX2                !
 ! D235  D(91,89,92,95)         59.1533         estimate D2E/DX2                !
 ! D236  D(89,92,95,96)        180.0            estimate D2E/DX2                !
 ! D237  D(93,92,95,96)        -59.979          estimate D2E/DX2                !
 ! D238  D(94,92,95,96)         60.0069         estimate D2E/DX2                !
 ! D239  D(92,95,96,97)         60.7287         estimate D2E/DX2                !
 ! D240  D(92,95,96,98)        180.0            estimate D2E/DX2                !
 ! D241  D(92,95,96,99)        -60.7561         estimate D2E/DX2                !
 ! D242  D(47,100,103,104)     -59.3504         estimate D2E/DX2                !
 ! D243  D(47,100,103,105)      59.3504         estimate D2E/DX2                !
 ! D244  D(47,100,103,106)     180.0            estimate D2E/DX2                !
 ! D245  D(101,100,103,104)     23.8287         estimate D2E/DX2                !
 ! D246  D(101,100,103,105)    142.5295         estimate D2E/DX2                !
 ! D247  D(101,100,103,106)    -96.8209         estimate D2E/DX2                !
 ! D248  D(102,100,103,104)   -142.537          estimate D2E/DX2                !
 ! D249  D(102,100,103,105)    -23.8363         estimate D2E/DX2                !
 ! D250  D(102,100,103,106)     96.8134         estimate D2E/DX2                !
 ! D251  D(100,103,106,107)    180.0            estimate D2E/DX2                !
 ! D252  D(104,103,106,107)     60.1498         estimate D2E/DX2                !
 ! D253  D(105,103,106,107)    -60.1498         estimate D2E/DX2                !
 ! D254  D(103,106,107,108)    -59.9821         estimate D2E/DX2                !
 ! D255  D(103,106,107,109)     59.9821         estimate D2E/DX2                !
 ! D256  D(103,106,107,110)    180.0            estimate D2E/DX2                !
 ! D257  D(106,107,110,111)     59.1788         estimate D2E/DX2                !
 ! D258  D(106,107,110,112)    -59.1788         estimate D2E/DX2                !
 ! D259  D(106,107,110,113)    180.0            estimate D2E/DX2                !
 ! D260  D(108,107,110,111)    -61.5757         estimate D2E/DX2                !
 ! D261  D(108,107,110,112)   -179.9333         estimate D2E/DX2                !
 ! D262  D(108,107,110,113)     59.2455         estimate D2E/DX2                !
 ! D263  D(109,107,110,111)    179.9333         estimate D2E/DX2                !
 ! D264  D(109,107,110,112)     61.5757         estimate D2E/DX2                !
 ! D265  D(109,107,110,113)    -59.2455         estimate D2E/DX2                !
 ! D266  D(107,110,113,114)    180.0            estimate D2E/DX2                !
 ! D267  D(111,110,113,114)    -60.0092         estimate D2E/DX2                !
 ! D268  D(112,110,113,114)     60.0092         estimate D2E/DX2                !
 ! D269  D(110,113,114,115)     59.9723         estimate D2E/DX2                !
 ! D270  D(110,113,114,116)    -60.0254         estimate D2E/DX2                !
 ! D271  D(110,113,114,117)    180.0            estimate D2E/DX2                !
 ! D272  D(113,114,117,118)     59.0908         estimate D2E/DX2                !
 ! D273  D(113,114,117,119)    -59.1192         estimate D2E/DX2                !
[...]
       Atomic Center   63 is at   4.410307 -2.365883  0.000976
       Atomic Center   64 is at   0.445958  0.165123  0.000266
       Atomic Center   65 is at  -0.119914  1.437174 -0.000042
       Atomic Center   66 is at  -1.531204  1.451745 -0.000055
       Atomic Center   67 is at  -2.088539  0.187754  0.000233
       Atomic Center   68 is at  -0.838868 -1.040039  0.000499
       Atomic Center   69 is at   0.698744  2.524329 -0.000338
       Atomic Center   70 is at  -2.126511  2.353239 -0.000256
       Atomic Center   71 is at   2.189463 -3.828256  0.001286
       Atomic Center   72 is at   2.802633 -3.978873  0.896348
       Atomic Center   73 is at   2.802691 -3.979324 -0.893660
       Atomic Center   74 is at   1.369556 -4.544438  0.001440
       Atomic Center   75 is at   7.933255  3.798730  0.000051
       Atomic Center   76 is at   7.309753  3.932871  0.890694
       Atomic Center   77 is at   7.309481  3.932854 -0.890404
       Atomic Center   78 is at   9.059000  4.817754 -0.000131
       Atomic Center   79 is at   9.689405  4.678252  0.888973
       Atomic Center   80 is at   9.689131  4.678236 -0.889427
       Atomic Center   81 is at   8.453058  6.095842 -0.000049
       Atomic Center   82 is at   9.385454  7.162475 -0.000197
       Atomic Center   83 is at  10.030516  7.120726  0.888577
       Atomic Center   84 is at  10.030246  7.120714 -0.889167
       Atomic Center   85 is at   8.596416  8.459875 -0.000086
       Atomic Center   86 is at   7.950842  8.500743  0.888782
       Atomic Center   87 is at   7.950573  8.500732 -0.888758
       Atomic Center   88 is at   9.529066  9.523572 -0.000234
       Atomic Center   89 is at   8.923777 10.803794 -0.000147
       Atomic Center   90 is at   8.291792 10.940364  0.888701
       Atomic Center   91 is at   8.291512 10.940352 -0.888799
       Atomic Center   92 is at  10.035825 11.837610 -0.000330
       Atomic Center   93 is at  10.668929 11.699127 -0.889246
       Atomic Center   94 is at  10.669213 11.699135  0.888386
       Atomic Center   95 is at   9.429526 13.114664 -0.000239
       Atomic Center   96 is at  10.368206 14.170406 -0.000398
       Atomic Center   97 is at  11.010098 14.140733 -0.892712
       Atomic Center   98 is at   9.804620 15.103791 -0.000313
       Atomic Center   99 is at  11.010388 14.140745  0.891707
       Atomic Center  100 is at  10.059720 -3.855872 -0.000190
       Atomic Center  101 is at  10.684163 -3.988154  0.890262
       Atomic Center  102 is at  10.683841 -3.988190 -0.890863
       Atomic Center  103 is at   8.938974 -4.880415  0.000031
       Atomic Center  104 is at   8.308546 -4.743441  0.889618
       Atomic Center  105 is at   8.308214 -4.743462 -0.889325
       Atomic Center  106 is at   9.549869 -6.156050 -0.000067
       Atomic Center  107 is at   8.621679 -7.226105  0.000119
       Atomic Center  108 is at   7.976823 -7.186744  0.889273
       Atomic Center  109 is at   7.976482 -7.186758 -0.888788
       Atomic Center  110 is at   9.414614 -8.521124 -0.000023
       Atomic Center  111 is at  10.060568 -8.560131  0.888604
       Atomic Center  112 is at  10.060225 -8.560146 -0.888899
       Atomic Center  113 is at   8.484680 -9.587182  0.000166
       Atomic Center  114 is at   9.093633-10.865962  0.000056
       Atomic Center  115 is at   9.726255-11.000578  0.888671
       Atomic Center  116 is at   9.725915-11.000586 -0.888799
       Atomic Center  117 is at   7.984645-11.903062  0.000273
       Atomic Center  118 is at   7.350800-11.766510 -0.888470
       Atomic Center  119 is at   7.351137-11.766498  0.889255
       Atomic Center  120 is at   8.594933-13.178007  0.000165
       Atomic Center  121 is at   7.659848-14.237012  0.000346
       Atomic Center  122 is at   7.017623-14.209543 -0.891788
       Atomic Center  123 is at   8.226691-15.168386  0.000244
       Atomic Center  124 is at   7.017958-14.209535  0.892722
       Atomic Center  125 is at  -5.662764 -3.798914  0.001328
       Atomic Center  126 is at  -5.049714 -3.950351 -0.893625
       Atomic Center  127 is at  -5.049647 -3.950145  0.896272
       Atomic Center  128 is at  -6.483553 -4.514088  0.001453
       Atomic Center  129 is at   0.097098  3.812800  0.000016
       Atomic Center  130 is at  -0.515824  3.964765 -0.894869
       Atomic Center  131 is at  -0.515552  3.964398  0.895146
       Atomic Center  132 is at   0.918895  4.526722  0.000025
   73324 points will be used for fitting atomic charges
 Fitting point charges to electrostatic potential
 Charges from ESP fit, RMS=   0.00366 RRMS=   0.28669:
 ESP charges:
               1
     1  C   -0.023143
     2  C    0.246100
     3  C   -0.343439
     4  C    0.097270
     5  S   -0.187642
     6  O   -0.182964
     7  H    0.231882
     8  C    0.015753
     9  C    0.211692
    10  C   -0.338981
    11  C    0.114211
    12  S   -0.197768
    13  O   -0.176853
    14  H    0.227174
    15  C   -0.001825
    16  H    0.082044
    17  H    0.037869
    18  H    0.037952
    19  C   -0.003774
    20  C    0.268422
    21  C   -0.345713
    22  C    0.103852
    23  S   -0.187917
    24  O   -0.270266
    25  H    0.230084
    26  C   -0.094639
    27  C    0.292394
    28  C   -0.265724
    29  C   -0.162472
    30  S   -0.024224
    31  O   -0.191639
    32  H    0.144192
    33  C    0.091094
    34  H    0.018273
    35  H    0.018174
    36  H    0.060436
    37  C   -0.038476
    38  H    0.088536
    39  H    0.052588
    40  H    0.052304
    41  H    0.167222
    42  C   -0.084508
    43  C    0.326538
    44  C   -0.286453
    45  C   -0.156701
    46  S   -0.036183
    47  O   -0.296296
    48  H    0.143270
    49  C   -0.002411
    50  C    0.328951
    51  C   -0.385221
    52  C    0.122459
    53  S   -0.194263
    54  O   -0.375780
    55  H    0.229830
    56  H    0.173462
    57  C   -0.011150
    58  C    0.214018
    59  C   -0.311416
    60  C    0.090823
    61  S   -0.176607
    62  O   -0.170488
    63  H    0.209928
    64  C   -0.004916
    65  C    0.249304
    66  C   -0.365550
    67  C    0.121448
    68  S   -0.198604
    69  O   -0.190898
    70  H    0.235861
    71  C   -0.001719
    72  H    0.035781
    73  H    0.036085
    74  H    0.082616
    75  C    0.210665
    76  H    0.001240
    77  H    0.001174
    78  C    0.427353
    79  H   -0.041960
    80  H   -0.041963
    81  O   -0.576149
    82  C    0.292368
    83  H   -0.019661
    84  H   -0.019709
    85  C    0.409179
    86  H   -0.038386
    87  H   -0.038174
    88  O   -0.575811
    89  C    0.279084
    90  H   -0.019479
    91  H   -0.019512
    92  C    0.324493
    93  H   -0.015634
    94  H   -0.015640
    95  O   -0.472128
    96  C    0.190672
    97  H   -0.011510
    98  H    0.036364
    99  H   -0.011529
   100  C    0.116740
   101  H    0.031609
   102  H    0.031473
   103  C    0.401318
   104  H   -0.027883
   105  H   -0.027697
   106  O   -0.562141
   107  C    0.262735
   108  H   -0.014567
   109  H   -0.014610
   110  C    0.438932
   111  H   -0.045129
   112  H   -0.045127
   113  O   -0.577829
   114  C    0.266092
   115  H   -0.016519
   116  H   -0.016502
   117  C    0.326368
   118  H   -0.014721
   119  H   -0.014671
   120  O   -0.470544
   121  C    0.187666
   122  H   -0.010423
   123  H    0.036735
   124  H   -0.010433
   125  C   -0.011894
   126  H    0.038227
   127  H    0.038305
   128  H    0.086002
   129  C    0.012023
   130  H    0.033920
   131  H    0.033949
   132  H    0.079983
 Sum of ESP charges =   0.00000
 ESP charges with hydrogens summed into heavy atoms:
               1
     1  C   -0.023143
     2  C    0.246100
     3  C   -0.111558
     4  C    0.097270
     5  S   -0.187642
     6  O   -0.182964
     8  C    0.015753
     9  C    0.211692
    10  C   -0.111807
    11  C    0.114211
    12  S   -0.197768
    13  O   -0.176853
    15  C    0.156039
    19  C   -0.003774
    20  C    0.268422
    21  C   -0.115629
    22  C    0.103852
    23  S   -0.187917
    24  O   -0.270266
    26  C   -0.094639
    27  C    0.292394
    28  C   -0.121532
    29  C    0.004750
    30  S   -0.024224
    31  O   -0.191639
    33  C    0.187977
    37  C    0.154951
    42  C   -0.084508
    43  C    0.326538
    44  C   -0.143183
    45  C    0.016761
    46  S   -0.036183
    47  O   -0.296296
    49  C   -0.002411
    50  C    0.328951
    51  C   -0.155391
    52  C    0.122459
    53  S   -0.194263
    54  O   -0.375780
    57  C   -0.011150
    58  C    0.214018
    59  C   -0.101489
    60  C    0.090823
    61  S   -0.176607
    62  O   -0.170488
    64  C   -0.004916
    65  C    0.249304
    66  C   -0.129689
    67  C    0.121448
    68  S   -0.198604
    69  O   -0.190898
    71  C    0.152763
    75  C    0.213079
    78  C    0.343430
    81  O   -0.576149
    82  C    0.252997
    85  C    0.332619
    88  O   -0.575811
    89  C    0.240093
    92  C    0.293219
    95  O   -0.472128
    96  C    0.203997
   100  C    0.179822
   103  C    0.345739
   106  O   -0.562141
   107  C    0.233557
   110  C    0.348676
   113  O   -0.577829
   114  C    0.233071
   117  C    0.296976
   120  O   -0.470544
   121  C    0.203545
   125  C    0.150641
   129  C    0.159875
 Charge=   0.00000 Dipole=    -0.7962     0.0522    -0.0030 Tot=     0.7979
 -----------------------------------------------------------------

              Electrostatic Properties (Atomic Units)

 -----------------------------------------------------------------
    Center     Electric         -------- Electric Field --------
               Potential          X             Y             Z
 -----------------------------------------------------------------
    1 Atom    -14.744781
    2 Atom    -14.716538
    3 Atom    -14.776688
    4 Atom    -14.742502
    5 Atom    -59.227299
    6 Atom    -22.337401
    7 Atom     -1.092714
    8 Atom    -14.745066
    9 Atom    -14.716612
   10 Atom    -14.776900
   11 Atom    -14.742515
   12 Atom    -59.227447
   13 Atom    -22.337396
   14 Atom     -1.092895
   15 Atom    -14.716170
   16 Atom     -1.101617
   17 Atom     -1.103281
   18 Atom     -1.103280
   19 Atom    -14.746259
   20 Atom    -14.717957
   21 Atom    -14.777513
   22 Atom    -14.743102
   23 Atom    -59.227649
   24 Atom    -22.339109
   25 Atom     -1.093532
   26 Atom    -14.747118
   27 Atom    -14.718506
   28 Atom    -14.775791
   29 Atom    -14.757955
   30 Atom    -59.226026
   31 Atom    -22.338322
   32 Atom     -1.093512
   33 Atom    -14.717583
   34 Atom     -1.104670
   35 Atom     -1.104670
   36 Atom     -1.103196
   37 Atom    -14.715748
   38 Atom     -1.101373
   39 Atom     -1.102962
   40 Atom     -1.102962
   41 Atom     -1.086356
   42 Atom    -14.744763
   43 Atom    -14.715835
   44 Atom    -14.774553
   45 Atom    -14.756337
   46 Atom    -59.224122
   47 Atom    -22.335552
   48 Atom     -1.092811
   49 Atom    -14.744234
   50 Atom    -14.715318
   51 Atom    -14.776526
   52 Atom    -14.741488
   53 Atom    -59.225969
   54 Atom    -22.336364
   55 Atom     -1.092974
   56 Atom     -1.084857
   57 Atom    -14.744428
   58 Atom    -14.716139
   59 Atom    -14.775934
   60 Atom    -14.741957
   61 Atom    -59.226960
   62 Atom    -22.336916
   63 Atom     -1.091853
   64 Atom    -14.744800
   65 Atom    -14.716362
   66 Atom    -14.776743
   67 Atom    -14.742260
   68 Atom    -59.227173
   69 Atom    -22.337466
   70 Atom     -1.092797
   71 Atom    -14.715480
   72 Atom     -1.102578
   73 Atom     -1.102578
   74 Atom     -1.100984
   75 Atom    -14.714460
   76 Atom     -1.110191
   77 Atom     -1.110192
   78 Atom    -14.721422
   79 Atom     -1.117079
   80 Atom     -1.117079
   81 Atom    -22.363451
   82 Atom    -14.725145
   83 Atom     -1.120090
   84 Atom     -1.120090
   85 Atom    -14.726326
   86 Atom     -1.121348
   87 Atom     -1.121348
   88 Atom    -22.367418
   89 Atom    -14.728347
   90 Atom     -1.123129
   91 Atom     -1.123129
   92 Atom    -14.729674
   93 Atom     -1.123723
   94 Atom     -1.123723
   95 Atom    -22.371759
   96 Atom    -14.731450
   97 Atom     -1.118113
   98 Atom     -1.115079
   99 Atom     -1.118113
  100 Atom    -14.712565
  101 Atom     -1.108380
  102 Atom     -1.108381
  103 Atom    -14.718999
  104 Atom     -1.114535
  105 Atom     -1.114536
  106 Atom    -22.361064
  107 Atom    -14.722626
  108 Atom     -1.117500
  109 Atom     -1.117500
  110 Atom    -14.724304
  111 Atom     -1.119360
  112 Atom     -1.119360
  113 Atom    -22.365504
  114 Atom    -14.726736
  115 Atom     -1.121524
  116 Atom     -1.121524
  117 Atom    -14.728058
  118 Atom     -1.122110
  119 Atom     -1.122110
  120 Atom    -22.370367
  121 Atom    -14.730183
  122 Atom     -1.116820
  123 Atom     -1.113861
  124 Atom     -1.116820
  125 Atom    -14.716141
  126 Atom     -1.103247
  127 Atom     -1.103250
  128 Atom     -1.101586
  129 Atom    -14.716683
  130 Atom     -1.103724
  131 Atom     -1.103721
  132 Atom     -1.102246
 -----------------------------------------------------------------
 Leave Link  602 at Tue Jan 14 10:59:21 2020, MaxMem=  6710886400 cpu:             133.4 elap:               8.4
 (Enter /apps/gaussian/g16-a03/l9999.exe)
 1\1\GINC-CX1-141-15-1\FOpt\RB3LYP\6-311G(d,p)\C52H58O14S8\NS5018\14-Ja
 n-2020\0\\#p opt b3lyp/6-311g(d,p) pop=chelpg\\O3G_4m_0sce_opt_pop.gjf
 \\0,1\C,3.6466733103,-1.5194790541,0.0006779644\C,3.0136160018,-0.2794
 617416,0.0017572645\C,1.6036261442,-0.3402433321,0.0017565004\C,1.1144
 189567,-1.6321060551,0.0006718034\S,2.427912894,-2.7913412645,-0.00031
 25995\O,3.7728811488,0.8505464638,0.0027358417\H,0.9609987066,0.528169
 0403,0.0025338476\C,5.0521086468,-1.7922821238,0.0003554691\C,5.685112
 5717,-3.0319743537,-0.0007214565\C,7.0956027913,-2.9708455653,-0.00087
 2054\C,7.5841478089,-1.6793932822,0.000132385\S,6.271177057,-0.5203818
 668,0.0013491479\O,4.9263024358,-4.1622727918,-0.0016011661\H,7.738440
 3187,-3.8391047034,-0.0018376862\C,5.5975881349,-5.4155575471,-0.00272
 84031\H,4.8162799207,-6.1736641204,-0.0032514689\H,6.2177556084,-5.533
 1065289,-0.8978560624\H,6.2179954963,-5.5345848031,0.8920374743\C,11.4
 850840345,-1.1305429747,0.0009528044\C,10.8551936932,0.1076482021,-0.0
 001510019\C,9.4430502637,0.0479277505,-0.0005670006\C,8.9544849578,-1.
 2428573541,0.0002554631\S,10.2678407174,-2.4013341119,0.0015583923\O,1
 1.6146925164,1.237885971,-0.0007836515\H,8.8010836448,0.9168270223,-0.
 001564514\C,12.8965040514,-1.4059175586,0.0015594761\C,13.525008768,-2
 .644156755,0.0026996405\C,14.9460422322,-2.577991251,0.0030206764\C,15
 .4004744823,-1.2902283253,0.0021291798\S,14.1155648136,-0.1364027081,0
 .0008984135\O,12.7685938632,-3.7780644793,0.0033973745\H,15.5985132766
 ,-3.4389153162,0.003868684\C,10.9447736649,2.4918201234,-0.0019515308\
 H,10.3242622429,2.6117774332,0.8926747251\H,10.3248623859,2.6104352291
 ,-0.8971727818\H,11.7270550591,3.2489070039,-0.0022578484\C,13.4437675
 122,-5.0282382972,0.0046011795\H,12.6654607083,-5.7895447565,0.0050116
 394\H,14.0649229491,-5.1464757674,-0.8900242961\H,14.0644347006,-5.145
 0150394,0.8997569112\H,16.4242662704,-0.9500584354,0.0021364316\C,-12.
 0376822623,-2.3046882118,-0.0010904924\C,-12.6702683936,-1.0687714609,
 -0.0007261111\C,-14.0911906217,-1.1377865413,-0.0011275123\C,-14.54318
 39031,-2.4258134621,-0.0018136286\S,-13.2552166899,-3.5763711443,-0.00
 18964383\O,-11.9210819251,0.0711809469,-0.0000651732\H,-14.7443358986,
 -0.2774615395,-0.0009462403\C,-10.6255863117,-2.5802191059,-0.00086268
 7\C,-9.9919102061,-3.8161004251,-0.001219935\C,-8.5797738082,-3.753855
 248,-0.0009118358\C,-8.0932954271,-2.4628193514,-0.0003281956\S,-9.409
 3261187,-1.3072954836,-0.0000033571\O,-10.7443338126,-4.9522752844,-0.
 0018558548\H,-7.937400497,-4.6223969376,-0.001144658\H,-15.5661773453,
 -2.7682932518,-0.0022509167\C,-4.192343729,-1.9082242222,0.000234369\C
 ,-4.8264349812,-0.6689654523,0.00098963\C,-6.2367861132,-0.7317669066,
 0.0008906903\C,-6.7236824784,-2.0238890003,0.0000374479\S,-5.409632267
 2,-3.1813099134,-0.0006065877\O,-4.0684686361,0.4620818374,0.001730204
 2\H,-6.8804019345,0.135930023,0.0014240433\C,-2.7867500603,-2.18011451
 18,0.0001237924\C,-2.1538627419,-3.4201871605,-0.0006188193\C,-0.74380
 34575,-3.3594935694,-0.0005015789\C,-0.2546508878,-2.0675860391,0.0003
 261699\S,-1.5680045507,-0.9081663079,0.0009436342\O,-2.913394639,-4.54
 94425237,-0.0014121644\H,-0.1012794133,-4.2279667666,-0.0009915975\C,-
 4.7406833563,1.7146283638,0.0025103954\H,-5.3610791706,1.8319915877,0.
 8975709469\H,-5.3610252222,1.8331346518,-0.8924369876\H,-3.9601259569,
 2.4735053655,0.0030182185\C,-10.069670292,-6.2077411207,-0.0022112684\
 H,-9.4399715738,-6.308795557,0.8884405538\H,-9.4395650008,-6.308071235
 7,-0.8926574986\C,-11.1394847249,-7.2853346164,-0.0028934986\H,-11.776
 4979951,-7.1799868764,0.886203425\H,-11.7760904658,-7.1792653621,-0.89
 2196525\O,-10.466263469,-8.5292994625,-0.0032440514\C,-11.3404646583,-
 9.6441259168,-0.0038926366\H,-11.9869027677,-9.6371736132,0.8848350162
 \H,-11.9864985997,-9.636455921,-0.8929082354\C,-10.4833781171,-10.8976
 122476,-0.0042035601\H,-9.8366112436,-10.9043492487,0.8847108546\H,-9.
 8362074032,-10.9036328699,-0.8928291092\O,-11.3579903862,-12.009521274
 1,-0.0048506678\C,-10.6853063639,-13.2556510444,-0.0051979411\H,-10.04
 70068454,-13.3586787195,0.8836591107\H,-10.0465930052,-13.3579599849,-
 0.893840646\C,-11.7406544277,-14.3472856927,-0.0058848491\H,-12.380174
 3141,-14.2424083994,-0.8948091994\H,-12.3805917986,-14.2431231889,0.88
 2823037\O,-11.0671313575,-15.5901982503,-0.0062265854\C,-11.9481896083
 ,-16.6944843886,-0.0068822605\H,-12.5906828197,-16.6987299274,-0.89924
 60677\H,-11.3356413353,-17.5964947244,-0.0071012084\H,-12.5911070552,-
 16.6994511841,0.8851722024\C,-12.6012185946,1.3226010626,0.0002847072\
 H,-13.2318934799,1.4210561995,0.8907270568\H,-13.2314387865,1.42180146
 14,-0.8903969428\C,-11.5366908285,2.4054395504,0.0010080628\H,-10.8999
 235328,2.3019258115,0.8906035694\H,-10.8994588064,2.302656218,-0.88833
 92148\O,-12.2147281048,3.6466901441,0.0013411904\C,-11.3449081345,4.76
 4709171,0.0020283757\H,-10.6989385236,4.7594388568,0.8912297706\H,-10.
 6984636156,4.7601630899,-0.8868316944\C,-12.2057595108,6.0156107624,0.
 0023077288\H,-12.8529424084,6.0197778704,0.8908872867\H,-12.8524653336
 ,6.0205023304,-0.8866153808\O,-11.3339858973,7.1297318834,0.0029960775
 \C,-12.0102513235,8.3742272045,0.0033187021\H,-12.6492177554,8.4745773
 66,0.8919241425\H,-12.6487442183,8.4752953318,-0.8855456597\C,-10.9581
 336061,9.46897803,0.0040414379\H,-10.3178418023,9.3667588285,-0.884693
 0493\H,-10.3183132078,9.3660379843,0.8930322264\O,-11.6355281006,10.70
 95720403,0.0043648709\C,-10.758234108,11.8169241477,0.0050430582\H,-10
 .1153897133,11.8240821732,-0.8870397494\H,-11.3739266347,12.7167521048
 ,0.0052440517\H,-10.1158599676,11.8233618103,0.8974701105\C,3.10193997
 45,2.1039719483,0.0032991685\H,2.4817558795,2.2228565077,-0.8916547792
 \H,2.4815638241,2.2219507706,0.898241521\H,3.8834316654,2.8618885708,0
 .0037780601\C,-2.2439088598,-5.804003646,-0.0014952449\H,-1.6236879694
 ,-5.9227268014,-0.8963787839\H,-1.6241151073,-5.923071301,0.8936360941
 \H,-3.026474208,-6.5607247855,-0.0018393602\\Version=ES64L-G16RevA.03\
 State=1-A\HF=-6255.8266775\RMSD=2.658e-09\RMSF=1.527e-06\Dipole=0.1283
 636,-0.0161528,-0.000143\Quadrupole=7.984596,41.5822626,-49.5668586,-6
 .9279382,0.0013959,0.0242567\PG=C01 [X(C52H58O14S8)]\\@


      LET US REMEMBER, PLEASE, THAT THE SEARCH FOR THE CONSTITUTION
      OF THE WORLD IS ONE OF THE GREATEST AND NOBLEST PROBLEMS PRESENTED 
      BY NATURE.

                                                  -- GALILEO
 Job cpu time:       1 days  8 hours 43 minutes 49.6 seconds.
 Elapsed time:       0 days  2 hours  3 minutes 15.5 seconds.
 File lengths (MBytes):  RWF=   1854 Int=      0 D2E=      0 Chk=    222 Scr=      1
 Normal termination of Gaussian 16 at Tue Jan 14 10:59:22 2020.
