 Entering Gaussian System, Link 0=g16
 Input=OBT_2m_eth_pop.gjf
 Output=OBT_2m_eth_pop.log
 Initial command:
 /apps/gaussian/g16-a03/l1.exe "/tmp/pbs.947041.pbs/Gau-13287.inp" -scrdir="/tmp/pbs.947041.pbs/"
 Entering Link 1 = /apps/gaussian/g16-a03/l1.exe PID=     13289.
  
 Copyright (c) 1988,1990,1992,1993,1995,1998,2003,2009,2016,
            Gaussian, Inc.  All Rights Reserved.
  
 This is part of the Gaussian(R) 16 program.  It is based on
 the Gaussian(R) 09 system (copyright 2009, Gaussian, Inc.),
 the Gaussian(R) 03 system (copyright 2003, Gaussian, Inc.),
 the Gaussian(R) 98 system (copyright 1998, Gaussian, Inc.),
 the Gaussian(R) 94 system (copyright 1995, Gaussian, Inc.),
 the Gaussian 92(TM) system (copyright 1992, Gaussian, Inc.),
 the Gaussian 90(TM) system (copyright 1990, Gaussian, Inc.),
 the Gaussian 88(TM) system (copyright 1988, Gaussian, Inc.),
 the Gaussian 86(TM) system (copyright 1986, Carnegie Mellon
 University), and the Gaussian 82(TM) system (copyright 1983,
 Carnegie Mellon University). Gaussian is a federally registered
 trademark of Gaussian, Inc.
  
 This software contains proprietary and confidential information,
 including trade secrets, belonging to Gaussian, Inc.
  
 This software is provided under written license and may be
 used, copied, transmitted, or stored only in accord with that
 written license.
  
 The following legend is applicable only to US Government
 contracts under FAR:
  
                    RESTRICTED RIGHTS LEGEND
  
 Use, reproduction and disclosure by the US Government is
 subject to restrictions as set forth in subparagraphs (a)
 and (c) of the Commercial Computer Software - Restricted
 Rights clause in FAR 52.227-19.
  
 Gaussian, Inc.
 340 Quinnipiac St., Bldg. 40, Wallingford CT 06492
  
  
 ---------------------------------------------------------------
 Warning -- This program may not be used in any manner that
 competes with the business of Gaussian, Inc. or will provide
 assistance to any competitor of Gaussian, Inc.  The licensee
 of this program is prohibited from giving any competitor of
 Gaussian, Inc. access to this program.  By using this program,
 the user acknowledges that Gaussian, Inc. is engaged in the
 business of creating and licensing software in the field of
 computational chemistry and represents and warrants to the
 licensee that it is not a competitor of Gaussian, Inc. and that
 it will not use this program in any manner prohibited above.
 ---------------------------------------------------------------
  

 Cite this work as:
 Gaussian 16, Revision A.03,
 M. J. Frisch, G. W. Trucks, H. B. Schlegel, G. E. Scuseria, 
 M. A. Robb, J. R. Cheeseman, G. Scalmani, V. Barone, 
 G. A. Petersson, H. Nakatsuji, X. Li, M. Caricato, A. V. Marenich, 
 J. Bloino, B. G. Janesko, R. Gomperts, B. Mennucci, H. P. Hratchian, 
 J. V. Ortiz, A. F. Izmaylov, J. L. Sonnenberg, D. Williams-Young, 
 F. Ding, F. Lipparini, F. Egidi, J. Goings, B. Peng, A. Petrone, 
 T. Henderson, D. Ranasinghe, V. G. Zakrzewski, J. Gao, N. Rega, 
 G. Zheng, W. Liang, M. Hada, M. Ehara, K. Toyota, R. Fukuda, 
 J. Hasegawa, M. Ishida, T. Nakajima, Y. Honda, O. Kitao, H. Nakai, 
 T. Vreven, K. Throssell, J. A. Montgomery, Jr., J. E. Peralta, 
 F. Ogliaro, M. J. Bearpark, J. J. Heyd, E. N. Brothers, K. N. Kudin, 
 V. N. Staroverov, T. A. Keith, R. Kobayashi, J. Normand, 
 K. Raghavachari, A. P. Rendell, J. C. Burant, S. S. Iyengar, 
 J. Tomasi, M. Cossi, J. M. Millam, M. Klene, C. Adamo, R. Cammi, 
 J. W. Ochterski, R. L. Martin, K. Morokuma, O. Farkas, 
 J. B. Foresman, and D. J. Fox, Gaussian, Inc., Wallingford CT, 2016.
 
 ******************************************
 Gaussian 16:  ES64L-G16RevA.03 25-Dec-2016
                10-Jan-2020 
 ******************************************
 %mem=50GB
 %nprocshared=8
 Will use up to    8 processors via shared memory.
 ----------------------------
 #p Pop=CHelpG b3lyp/6-311g**
 ----------------------------
 1/38=1,172=1/1;
 2/12=2,17=6,18=5,40=1/2;
 3/5=4,6=6,7=101,11=2,25=1,30=1,74=-5/1,2,3;
 4//1;
 5/5=2,38=5/2;
 6/7=2,8=2,9=2,10=2,15=8,20=3,28=1/1,2;
 99/5=1,9=1/99;
 Leave Link    1 at Fri Jan 10 15:58:36 2020, MaxMem=  6710886400 cpu:               0.3 elap:               0.0
 (Enter /apps/gaussian/g16-a03/l101.exe)
 -----------------------
 OBT_2m_eth_opt_freq.gjf
 -----------------------
 Symbolic Z-matrix:
 Charge =  0 Multiplicity = 1
 C                     4.672    -0.134     0. 
 C                     5.346     1.075     0. 
 C                     6.773     0.987     0. 
 C                     7.233    -0.295     0. 
 S                     5.899    -1.5       0. 
 O                     4.608     2.255     0. 
 H                     7.427     1.845     0. 
 C                     3.268    -0.38      0. 
 C                     2.591    -1.588     0. 
 C                     1.174    -1.508     0. 
 C                     0.678    -0.224     0. 
 S                     2.046     0.987     0. 
 O                     3.331    -2.765     0. 
 H                     0.53     -2.373     0. 
 C                     5.317     3.522     0. 
 H                     5.935     3.627    -0.895 
 H                     5.935     3.627     0.895 
 C                     2.626    -4.036     0. 
 H                     2.009    -4.142     0.895 
 H                     2.009    -4.142    -0.895 
 H                     8.251    -0.642     0. 
 C                    -3.268     0.38      0. 
 C                    -2.591     1.588     0. 
 C                    -1.174     1.507     0. 
 C                    -0.678     0.223     0. 
 S                    -2.046    -0.987     0. 
 O                    -3.331     2.765     0. 
 H                    -0.53      2.372     0. 
 C                    -4.672     0.134     0. 
 C                    -5.346    -1.074     0. 
 C                    -6.773    -0.986     0. 
 C                    -7.233     0.295     0. 
 S                    -5.899     1.5       0. 
 O                    -4.609    -2.255     0. 
 H                    -7.427    -1.844     0. 
 C                    -2.625     4.036     0. 
 H                    -2.008     4.142    -0.894 
 H                    -2.009     4.142     0.895 
 C                    -5.318    -3.522     0. 
 H                    -5.935    -3.627     0.894 
 H                    -5.935    -3.627    -0.895 
 H                    -8.25      0.642     0. 
 C                    -3.73085   5.10778   0. 
 H                    -3.28488   6.08041   0.00196 
 H                    -4.33683   4.99502  -0.87463 
 H                    -4.33918   4.99258   0.87267 
 C                     4.21676   4.59953   0. 
 H                     3.6102    4.48993  -0.87463 
 H                     3.60783   4.48751   0.87267 
 H                     4.66779   5.56982   0.00196 
 C                     3.73116  -5.10849   0. 
 H                     3.28456  -6.08083   0.0002 
 H                     4.33827  -4.99502  -0.87375 
 H                     4.33851  -4.99478   0.87355 
 C                    -4.21776  -4.59953   0. 
 H                    -3.6112   -4.48993  -0.87463 
 H                    -3.60883  -4.48751   0.87267 
 H                    -4.66879  -5.56982   0.00196 
 
 ITRead=  0  0  0  0  0  0  0  0  0  0  0  0  0  0  0  0  0  0  0  0
 ITRead=  0  0  0  0  0  0  0  0  0  0  0  0  0  0  0  0  0  0  0  0
 ITRead=  0  0  0  0  0  0  0  0  0  0  0  0  0  0  0  0  0  0
 MicOpt= -1 -1 -1 -1 -1 -1 -1 -1 -1 -1 -1 -1 -1 -1 -1 -1 -1 -1 -1 -1
 MicOpt= -1 -1 -1 -1 -1 -1 -1 -1 -1 -1 -1 -1 -1 -1 -1 -1 -1 -1 -1 -1
 MicOpt= -1 -1 -1 -1 -1 -1 -1 -1 -1 -1 -1 -1 -1 -1 -1 -1 -1 -1
 NAtoms=     58 NQM=       58 NQMF=       0 NMMI=      0 NMMIF=      0
                NMic=       0 NMicF=      0.
                    Isotopes and Nuclear Properties:
 (Nuclear quadrupole moments (NQMom) in fm**2, nuclear magnetic moments (NMagM)
  in nuclear magnetons)

  Atom         1           2           3           4           5           6           7           8           9          10
 IAtWgt=          12          12          12          12          32          16           1          12          12          12
 AtmWgt=  12.0000000  12.0000000  12.0000000  12.0000000  31.9720718  15.9949146   1.0078250  12.0000000  12.0000000  12.0000000
 NucSpn=           0           0           0           0           0           0           1           0           0           0
 AtZEff=  -0.0000000  -0.0000000  -0.0000000  -0.0000000  -0.0000000  -0.0000000  -0.0000000  -0.0000000  -0.0000000  -0.0000000
 NQMom=    0.0000000   0.0000000   0.0000000   0.0000000   0.0000000   0.0000000   0.0000000   0.0000000   0.0000000   0.0000000
 NMagM=    0.0000000   0.0000000   0.0000000   0.0000000   0.0000000   0.0000000   2.7928460   0.0000000   0.0000000   0.0000000
 AtZNuc=   6.0000000   6.0000000   6.0000000   6.0000000  16.0000000   8.0000000   1.0000000   6.0000000   6.0000000   6.0000000

  Atom        11          12          13          14          15          16          17          18          19          20
 IAtWgt=          12          32          16           1          12           1           1          12           1           1
 AtmWgt=  12.0000000  31.9720718  15.9949146   1.0078250  12.0000000   1.0078250   1.0078250  12.0000000   1.0078250   1.0078250
 NucSpn=           0           0           0           1           0           1           1           0           1           1
 AtZEff=  -0.0000000  -0.0000000  -0.0000000  -0.0000000  -0.0000000  -0.0000000  -0.0000000  -0.0000000  -0.0000000  -0.0000000
 NQMom=    0.0000000   0.0000000   0.0000000   0.0000000   0.0000000   0.0000000   0.0000000   0.0000000   0.0000000   0.0000000
 NMagM=    0.0000000   0.0000000   0.0000000   2.7928460   0.0000000   2.7928460   2.7928460   0.0000000   2.7928460   2.7928460
 AtZNuc=   6.0000000  16.0000000   8.0000000   1.0000000   6.0000000   1.0000000   1.0000000   6.0000000   1.0000000   1.0000000

  Atom        21          22          23          24          25          26          27          28          29          30
 IAtWgt=           1          12          12          12          12          32          16           1          12          12
 AtmWgt=   1.0078250  12.0000000  12.0000000  12.0000000  12.0000000  31.9720718  15.9949146   1.0078250  12.0000000  12.0000000
 NucSpn=           1           0           0           0           0           0           0           1           0           0
 AtZEff=  -0.0000000  -0.0000000  -0.0000000  -0.0000000  -0.0000000  -0.0000000  -0.0000000  -0.0000000  -0.0000000  -0.0000000
 NQMom=    0.0000000   0.0000000   0.0000000   0.0000000   0.0000000   0.0000000   0.0000000   0.0000000   0.0000000   0.0000000
 NMagM=    2.7928460   0.0000000   0.0000000   0.0000000   0.0000000   0.0000000   0.0000000   2.7928460   0.0000000   0.0000000
 AtZNuc=   1.0000000   6.0000000   6.0000000   6.0000000   6.0000000  16.0000000   8.0000000   1.0000000   6.0000000   6.0000000

  Atom        31          32          33          34          35          36          37          38          39          40
 IAtWgt=          12          12          32          16           1          12           1           1          12           1
 AtmWgt=  12.0000000  12.0000000  31.9720718  15.9949146   1.0078250  12.0000000   1.0078250   1.0078250  12.0000000   1.0078250
 NucSpn=           0           0           0           0           1           0           1           1           0           1
 AtZEff=  -0.0000000  -0.0000000  -0.0000000  -0.0000000  -0.0000000  -0.0000000  -0.0000000  -0.0000000  -0.0000000  -0.0000000
 NQMom=    0.0000000   0.0000000   0.0000000   0.0000000   0.0000000   0.0000000   0.0000000   0.0000000   0.0000000   0.0000000
 NMagM=    0.0000000   0.0000000   0.0000000   0.0000000   2.7928460   0.0000000   2.7928460   2.7928460   0.0000000   2.7928460
 AtZNuc=   6.0000000   6.0000000  16.0000000   8.0000000   1.0000000   6.0000000   1.0000000   1.0000000   6.0000000   1.0000000

  Atom        41          42          43          44          45          46          47          48          49          50
 IAtWgt=           1           1          12           1           1           1          12           1           1           1
 AtmWgt=   1.0078250   1.0078250  12.0000000   1.0078250   1.0078250   1.0078250  12.0000000   1.0078250   1.0078250   1.0078250
 NucSpn=           1           1           0           1           1           1           0           1           1           1
 AtZEff=  -0.0000000  -0.0000000  -0.0000000  -0.0000000  -0.0000000  -0.0000000  -0.0000000  -0.0000000  -0.0000000  -0.0000000
 NQMom=    0.0000000   0.0000000   0.0000000   0.0000000   0.0000000   0.0000000   0.0000000   0.0000000   0.0000000   0.0000000
 NMagM=    2.7928460   2.7928460   0.0000000   2.7928460   2.7928460   2.7928460   0.0000000   2.7928460   2.7928460   2.7928460
 AtZNuc=   1.0000000   1.0000000   6.0000000   1.0000000   1.0000000   1.0000000   6.0000000   1.0000000   1.0000000   1.0000000

  Atom        51          52          53          54          55          56          57          58
 IAtWgt=          12           1           1           1          12           1           1           1
 AtmWgt=  12.0000000   1.0078250   1.0078250   1.0078250  12.0000000   1.0078250   1.0078250   1.0078250
 NucSpn=           0           1           1           1           0           1           1           1
 AtZEff=  -0.0000000  -0.0000000  -0.0000000  -0.0000000  -0.0000000  -0.0000000  -0.0000000  -0.0000000
 NQMom=    0.0000000   0.0000000   0.0000000   0.0000000   0.0000000   0.0000000   0.0000000   0.0000000
 NMagM=    0.0000000   2.7928460   2.7928460   2.7928460   0.0000000   2.7928460   2.7928460   2.7928460
 AtZNuc=   6.0000000   1.0000000   1.0000000   1.0000000   6.0000000   1.0000000   1.0000000   1.0000000
 Leave Link  101 at Fri Jan 10 15:58:37 2020, MaxMem=  6710886400 cpu:               1.1 elap:               0.2
 (Enter /apps/gaussian/g16-a03/l202.exe)
 Stoichiometry    C24H26O4S4
 Framework group  C1[X(C24H26O4S4)]
 Deg. of freedom   168
 Full point group                 C1      NOp   1
 Largest Abelian subgroup         C1      NOp   1
 Largest concise Abelian subgroup C1      NOp   1
                         Standard orientation:                         
 ---------------------------------------------------------------------
 Center     Atomic      Atomic             Coordinates (Angstroms)
 Number     Number       Type             X           Y           Z
 ---------------------------------------------------------------------
      1          6           0        4.672489    0.117566    0.000000
      2          6           0        5.342239   -1.093793    0.000000
      3          6           0        6.769540   -1.010805    0.000000
      4          6           0        7.234039    0.269572    0.000000
      5         16           0        5.904279    1.479249    0.000000
      6          8           0        4.600100   -2.271194    0.000000
      7          1           0        7.420523   -1.871097    0.000000
      8          6           0        3.269362    0.368495    0.000000
      9          6           0        2.596608    1.578865    0.000000
     10          6           0        1.179336    1.503842    0.000000
     11          6           0        0.678830    0.221592    0.000000
     12         16           0        2.042569   -0.994205    0.000000
     13          8           0        3.340737    2.753259    0.000000
     14          1           0        0.538378    2.371098    0.000000
     15          6           0        5.304646   -3.540676    0.000000
     16          1           0        5.922274   -3.647846    0.895000
     17          1           0        5.922274   -3.647846   -0.895000
     18          6           0        2.640205    4.026727    0.000000
     19          1           0        2.023581    4.134893   -0.895000
     20          1           0        2.023581    4.134893    0.895000
     21          1           0        8.253251    0.612994    0.000000
     22          6           0       -3.269267   -0.368547    0.000000
     23          6           0       -2.596513   -1.578917    0.000000
     24          6           0       -1.179237   -1.502894    0.000000
     25          6           0       -0.678731   -0.220644    0.000000
     26         16           0       -2.042474    0.994153    0.000000
     27          8           0       -3.340642   -2.753311    0.000000
     28          1           0       -0.538279   -2.370150    0.000000
     29          6           0       -4.672394   -0.117618    0.000000
     30          6           0       -5.342148    1.092741    0.000000
     31          6           0       -6.769448    1.009753    0.000000
     32          6           0       -7.233944   -0.269624    0.000000
     33         16           0       -5.904184   -1.479301    0.000000
     34          8           0       -4.601005    2.271146    0.000000
     35          1           0       -7.420431    1.870044    0.000000
     36          6           0       -2.639110   -4.026783    0.000000
     37          1           0       -2.022486   -4.134949    0.894000
     38          1           0       -2.023486   -4.134945   -0.895000
     39          6           0       -5.305551    3.540628    0.000000
     40          1           0       -5.922179    3.647794   -0.894000
     41          1           0       -5.922179    3.647794    0.895000
     42          1           0       -8.252156   -0.613050    0.000000
     43          6           0       -3.748713   -5.094669    0.000000
     44          1           0       -3.306161   -6.068858   -0.001956
     45          1           0       -4.354293   -4.979781    0.874628
     46          1           0       -4.356642   -4.977340   -0.872672
     47          6           0        4.200627   -4.614334    0.000000
     48          1           0        3.594456   -4.502605    0.874628
     49          1           0        3.592094   -4.500176   -0.872672
     50          1           0        4.648251   -5.586202   -0.001956
     51          6           0        3.749122    5.095326    0.000000
     52          1           0        3.305944    6.069232   -0.000196
     53          1           0        4.355834    4.979728    0.873749
     54          1           0        4.356069    4.979485   -0.873554
     55          6           0       -4.201531    4.614285    0.000000
     56          1           0       -3.595361    4.502557    0.874628
     57          1           0       -3.592999    4.500128   -0.872672
     58          1           0       -4.649156    5.586154   -0.001956
 ---------------------------------------------------------------------
 Rotational constants (GHZ):           0.1640286           0.0517017           0.0393882
 Leave Link  202 at Fri Jan 10 15:58:38 2020, MaxMem=  6710886400 cpu:               0.1 elap:               0.0
 (Enter /apps/gaussian/g16-a03/l301.exe)
 Standard basis: 6-311G(d,p) (5D, 7F)
 Ernie: Thresh=  0.10000D-02 Tol=  0.10000D-05 Strict=F.
 There are   796 symmetry adapted cartesian basis functions of A   symmetry.
 There are   764 symmetry adapted basis functions of A   symmetry.
   764 basis functions,  1288 primitive gaussians,   796 cartesian basis functions
   133 alpha electrons      133 beta electrons
       nuclear repulsion energy      3812.9688547320 Hartrees.
 IExCor=  402 DFT=T Ex+Corr=B3LYP ExCW=0 ScaHFX=  0.200000
 ScaDFX=  0.800000  0.720000  1.000000  0.810000 ScalE2=  1.000000  1.000000
 IRadAn=      5 IRanWt=     -1 IRanGd=            0 ICorTp=0 IEmpDi=  4
 NAtoms=   58 NActive=   58 NUniq=   58 SFac= 1.00D+00 NAtFMM=   60 NAOKFM=F Big=F
 Integral buffers will be    131072 words long.
 Raffenetti 2 integral format.
 Two-electron integral symmetry is turned on.
 Leave Link  301 at Fri Jan 10 15:58:38 2020, MaxMem=  6710886400 cpu:               0.6 elap:               0.1
 (Enter /apps/gaussian/g16-a03/l302.exe)
 NPDir=0 NMtPBC=     1 NCelOv=     1 NCel=       1 NClECP=     1 NCelD=      1
         NCelK=      1 NCelE2=     1 NClLst=     1 CellRange=     0.0.
 One-electron integrals computed using PRISM.
 One-electron integral symmetry used in STVInt
 NBasis=   764 RedAO= T EigKep=  1.84D-04  NBF=   764
 NBsUse=   764 1.00D-06 EigRej= -1.00D+00 NBFU=   764
 Precomputing XC quadrature grid using
 IXCGrd= 4 IRadAn=           5 IRanWt=          -1 IRanGd=           0 AccXCQ= 0.00D+00.
 Generated NRdTot=       0 NPtTot=           0 NUsed=           0 NTot=          32
 NSgBfM=   741   741   741   741   741 MxSgAt=    58 MxSgA2=    58.
 Leave Link  302 at Fri Jan 10 15:58:40 2020, MaxMem=  6710886400 cpu:              14.1 elap:               1.8
 (Enter /apps/gaussian/g16-a03/l303.exe)
 DipDrv:  MaxL=1.
 Leave Link  303 at Fri Jan 10 15:58:41 2020, MaxMem=  6710886400 cpu:               1.1 elap:               0.2
 (Enter /apps/gaussian/g16-a03/l401.exe)
 ExpMin= 7.71D-02 ExpMax= 9.34D+04 ExpMxC= 3.17D+03 IAcc=3 IRadAn=         5 AccDes= 0.00D+00
 Harris functional with IExCor=  402 and IRadAn=       5 diagonalized for initial guess.
 HarFok:  IExCor=  402 AccDes= 0.00D+00 IRadAn=         5 IDoV= 1 UseB2=F ITyADJ=14
 ICtDFT=  3500011 ScaDFX=  1.000000  1.000000  1.000000  1.000000
 FoFCou: FMM=F IPFlag=           0 FMFlag=      100000 FMFlg1=           0
         NFxFlg=           0 DoJE=T BraDBF=F KetDBF=T FulRan=T
         wScrn=  0.000000 ICntrl=       500 IOpCl=  0 I1Cent=   200000004 NGrid=           0
         NMat0=    1 NMatS0=      1 NMatT0=    0 NMatD0=    1 NMtDS0=    0 NMtDT0=    0
 Petite list used in FoFCou.
 Harris En= -2824.13838928130    
 JPrj=0 DoOrth=F DoCkMO=F.
 Leave Link  401 at Fri Jan 10 15:58:49 2020, MaxMem=  6710886400 cpu:              66.8 elap:               8.4
 (Enter /apps/gaussian/g16-a03/l502.exe)
 Integral symmetry usage will be decided dynamically.
 Closed shell SCF:
 Using DIIS extrapolation, IDIIS=  1040.
 NGot=  6710886400 LenX=  6709604998 LenY=  6708970586
 Requested convergence on RMS density matrix=1.00D-08 within 128 cycles.
 Requested convergence on MAX density matrix=1.00D-06.
 Requested convergence on             energy=1.00D-06.
 No special actions if energy rises.
 Fock matrices will be formed incrementally for  20 cycles.
 Integral accuracy reduced to 1.0D-05 until final iterations.

 Cycle   1  Pass 0  IDiag  1:
 FoFJK:  IHMeth= 1 ICntrl=       0 DoSepK=F KAlg= 0 I1Cent=           0 FoldK=F
 IRaf= 530000000 NMat=       1 IRICut=       1 DoRegI=T DoRafI=F ISym2E= 0 IDoP0=0 IntGTp=1.
 FoFCou: FMM=F IPFlag=           0 FMFlag=      100000 FMFlg1=           0
         NFxFlg=           0 DoJE=F BraDBF=F KetDBF=F FulRan=T
         wScrn=  0.000000 ICntrl=         0 IOpCl=  0 I1Cent=           0 NGrid=           0
         NMat0=    1 NMatS0=      1 NMatT0=    0 NMatD0=    1 NMtDS0=    0 NMtDT0=    0
 Symmetry not used in FoFCou.
 E= -2823.15853984112    
 DIIS: error= 3.42D-02 at cycle   1 NSaved=   1.
 NSaved= 1 IEnMin= 1 EnMin= -2823.15853984112     IErMin= 1 ErrMin= 3.42D-02
 ErrMax= 3.42D-02  0.00D+00 EMaxC= 1.00D-01 BMatC= 1.13D+00 BMatP= 1.13D+00
 IDIUse=3 WtCom= 6.58D-01 WtEn= 3.42D-01
 Coeff-Com:  0.100D+01
 Coeff-En:   0.100D+01
 Coeff:      0.100D+01
 Gap=     0.066 Goal=   None    Shift=    0.000
 GapD=    0.066 DampG=0.500 DampE=0.500 DampFc=0.2500 IDamp=-1.
 Damping current iteration by 2.50D-01
 RMSDP=2.66D-03 MaxDP=1.34D-01              OVMax= 2.97D-01

 Cycle   2  Pass 0  IDiag  1:
 RMSU=  6.63D-04    CP:  9.93D-01
 E= -2823.54731722812     Delta-E=       -0.388777387006 Rises=F Damp=T
 DIIS: error= 1.58D-02 at cycle   2 NSaved=   2.
 NSaved= 2 IEnMin= 2 EnMin= -2823.54731722812     IErMin= 2 ErrMin= 1.58D-02
 ErrMax= 1.58D-02  0.00D+00 EMaxC= 1.00D-01 BMatC= 2.67D-01 BMatP= 1.13D+00
 IDIUse=3 WtCom= 8.42D-01 WtEn= 1.58D-01
 Coeff-Com: -0.779D+00 0.178D+01
 Coeff-En:   0.000D+00 0.100D+01
 Coeff:     -0.656D+00 0.166D+01
 Gap=     0.169 Goal=   None    Shift=    0.000
 RMSDP=7.05D-04 MaxDP=4.21D-02 DE=-3.89D-01 OVMax= 2.40D-01

 Cycle   3  Pass 0  IDiag  1:
 RMSU=  6.67D-04    CP:  9.91D-01  1.34D+00
 E= -2824.16685428949     Delta-E=       -0.619537061364 Rises=F Damp=F
 DIIS: error= 4.52D-03 at cycle   3 NSaved=   3.
 NSaved= 3 IEnMin= 3 EnMin= -2824.16685428949     IErMin= 3 ErrMin= 4.52D-03
 ErrMax= 4.52D-03  0.00D+00 EMaxC= 1.00D-01 BMatC= 1.59D-02 BMatP= 2.67D-01
 IDIUse=3 WtCom= 9.55D-01 WtEn= 4.52D-02
 Coeff-Com: -0.199D+00 0.479D+00 0.720D+00
 Coeff-En:   0.000D+00 0.000D+00 0.100D+01
 Coeff:     -0.190D+00 0.458D+00 0.732D+00
 Gap=     0.092 Goal=   None    Shift=    0.000
 RMSDP=3.58D-04 MaxDP=3.44D-02 DE=-6.20D-01 OVMax= 7.08D-02

 Cycle   4  Pass 0  IDiag  1:
 RMSU=  2.42D-04    CP:  9.89D-01  1.48D+00  6.31D-01
 E= -2824.17087458370     Delta-E=       -0.004020294214 Rises=F Damp=F
 DIIS: error= 4.69D-03 at cycle   4 NSaved=   4.
 NSaved= 4 IEnMin= 4 EnMin= -2824.17087458370     IErMin= 3 ErrMin= 4.52D-03
 ErrMax= 4.69D-03  0.00D+00 EMaxC= 1.00D-01 BMatC= 1.18D-02 BMatP= 1.59D-02
 IDIUse=3 WtCom= 9.53D-01 WtEn= 4.69D-02
 Coeff-Com: -0.279D-01 0.866D-01 0.461D+00 0.480D+00
 Coeff-En:   0.000D+00 0.000D+00 0.439D+00 0.561D+00
 Coeff:     -0.266D-01 0.826D-01 0.460D+00 0.484D+00
 Gap=     0.093 Goal=   None    Shift=    0.000
 RMSDP=1.67D-04 MaxDP=1.19D-02 DE=-4.02D-03 OVMax= 3.74D-02

 Cycle   5  Pass 0  IDiag  1:
 RMSU=  9.60D-05    CP:  9.89D-01  1.43D+00  7.47D-01  5.65D-01
 E= -2824.18246813749     Delta-E=       -0.011593553789 Rises=F Damp=F
 DIIS: error= 1.52D-03 at cycle   5 NSaved=   5.
 NSaved= 5 IEnMin= 5 EnMin= -2824.18246813749     IErMin= 5 ErrMin= 1.52D-03
 ErrMax= 1.52D-03  0.00D+00 EMaxC= 1.00D-01 BMatC= 9.89D-04 BMatP= 1.18D-02
 IDIUse=3 WtCom= 9.85D-01 WtEn= 1.52D-02
 Coeff-Com:  0.629D-02-0.826D-04 0.209D+00 0.286D+00 0.499D+00
 Coeff-En:   0.000D+00 0.000D+00 0.000D+00 0.201D-02 0.998D+00
 Coeff:      0.619D-02-0.813D-04 0.206D+00 0.282D+00 0.506D+00
 Gap=     0.094 Goal=   None    Shift=    0.000
 RMSDP=5.64D-05 MaxDP=4.33D-03 DE=-1.16D-02 OVMax= 1.12D-02

 Cycle   6  Pass 0  IDiag  1:
 RMSU=  2.63D-05    CP:  9.89D-01  1.42D+00  7.60D-01  6.50D-01  5.42D-01
 E= -2824.18334545346     Delta-E=       -0.000877315973 Rises=F Damp=F
 DIIS: error= 5.26D-04 at cycle   6 NSaved=   6.
 NSaved= 6 IEnMin= 6 EnMin= -2824.18334545346     IErMin= 6 ErrMin= 5.26D-04
 ErrMax= 5.26D-04  0.00D+00 EMaxC= 1.00D-01 BMatC= 1.31D-04 BMatP= 9.89D-04
 IDIUse=3 WtCom= 9.95D-01 WtEn= 5.26D-03
 Coeff-Com:  0.821D-02-0.119D-01 0.694D-01 0.107D+00 0.306D+00 0.520D+00
 Coeff-En:   0.000D+00 0.000D+00 0.000D+00 0.000D+00 0.113D+00 0.887D+00
 Coeff:      0.817D-02-0.119D-01 0.691D-01 0.107D+00 0.305D+00 0.522D+00
 Gap=     0.094 Goal=   None    Shift=    0.000
 RMSDP=1.84D-05 MaxDP=9.22D-04 DE=-8.77D-04 OVMax= 4.55D-03

 Cycle   7  Pass 0  IDiag  1:
 RMSU=  8.92D-06    CP:  9.89D-01  1.42D+00  7.64D-01  6.28D-01  6.28D-01
                    CP:  5.28D-01
 E= -2824.18346988341     Delta-E=       -0.000124429948 Rises=F Damp=F
 DIIS: error= 1.74D-04 at cycle   7 NSaved=   7.
 NSaved= 7 IEnMin= 7 EnMin= -2824.18346988341     IErMin= 7 ErrMin= 1.74D-04
 ErrMax= 1.74D-04  0.00D+00 EMaxC= 1.00D-01 BMatC= 1.17D-05 BMatP= 1.31D-04
 IDIUse=3 WtCom= 9.98D-01 WtEn= 1.74D-03
 Coeff-Com:  0.471D-02-0.741D-02 0.275D-01 0.426D-01 0.141D+00 0.309D+00
 Coeff-Com:  0.482D+00
 Coeff-En:   0.000D+00 0.000D+00 0.000D+00 0.000D+00 0.000D+00 0.482D-02
 Coeff-En:   0.995D+00
 Coeff:      0.470D-02-0.739D-02 0.274D-01 0.426D-01 0.141D+00 0.309D+00
 Coeff:      0.483D+00
 Gap=     0.094 Goal=   None    Shift=    0.000
 RMSDP=6.62D-06 MaxDP=3.65D-04 DE=-1.24D-04 OVMax= 2.07D-03

 Initial convergence to 1.0D-05 achieved.  Increase integral accuracy.
 Cycle   8  Pass 1  IDiag  1:
 E= -2824.18335580068     Delta-E=        0.000114082729 Rises=F Damp=F
 DIIS: error= 1.71D-04 at cycle   1 NSaved=   1.
 NSaved= 1 IEnMin= 1 EnMin= -2824.18335580068     IErMin= 1 ErrMin= 1.71D-04
 ErrMax= 1.71D-04  0.00D+00 EMaxC= 1.00D-01 BMatC= 6.03D-06 BMatP= 6.03D-06
 IDIUse=3 WtCom= 9.98D-01 WtEn= 1.71D-03
 Coeff-Com:  0.100D+01
 Coeff-En:   0.100D+01
 Coeff:      0.100D+01
 Gap=     0.094 Goal=   None    Shift=    0.000
 RMSDP=6.62D-06 MaxDP=3.65D-04 DE= 1.14D-04 OVMax= 2.46D-03

 Cycle   9  Pass 1  IDiag  1:
 RMSU=  5.92D-05    CP:  1.00D+00
 E= -2824.18334573470     Delta-E=        0.000010065980 Rises=F Damp=F
 DIIS: error= 2.31D-04 at cycle   2 NSaved=   2.
 NSaved= 2 IEnMin= 1 EnMin= -2824.18335580068     IErMin= 1 ErrMin= 1.71D-04
 ErrMax= 2.31D-04  0.00D+00 EMaxC= 1.00D-01 BMatC= 1.44D-05 BMatP= 6.03D-06
 IDIUse=3 WtCom= 3.97D-01 WtEn= 6.03D-01
 Coeff-Com:  0.631D+00 0.369D+00
 Coeff-En:   0.719D+00 0.281D+00
 Coeff:      0.684D+00 0.316D+00
 Gap=     0.094 Goal=   None    Shift=    0.000
 RMSDP=6.34D-06 MaxDP=4.26D-04 DE= 1.01D-05 OVMax= 1.94D-03

 Cycle  10  Pass 1  IDiag  1:
 RMSU=  6.31D-06    CP:  1.00D+00  9.90D-01
 E= -2824.18336178735     Delta-E=       -0.000016052652 Rises=F Damp=F
 DIIS: error= 3.69D-05 at cycle   3 NSaved=   3.
 NSaved= 3 IEnMin= 3 EnMin= -2824.18336178735     IErMin= 3 ErrMin= 3.69D-05
 ErrMax= 3.69D-05  0.00D+00 EMaxC= 1.00D-01 BMatC= 3.82D-07 BMatP= 6.03D-06
 IDIUse=1 WtCom= 1.00D+00 WtEn= 0.00D+00
 Coeff-Com:  0.635D-01 0.132D+00 0.804D+00
 Coeff:      0.635D-01 0.132D+00 0.804D+00
 Gap=     0.094 Goal=   None    Shift=    0.000
 RMSDP=1.55D-06 MaxDP=1.09D-04 DE=-1.61D-05 OVMax= 3.58D-04

 Cycle  11  Pass 1  IDiag  1:
 RMSU=  1.04D-06    CP:  1.00D+00  1.00D+00  8.46D-01
 E= -2824.18336189543     Delta-E=       -0.000000108079 Rises=F Damp=F
 DIIS: error= 3.62D-05 at cycle   4 NSaved=   4.
 NSaved= 4 IEnMin= 4 EnMin= -2824.18336189543     IErMin= 4 ErrMin= 3.62D-05
 ErrMax= 3.62D-05  0.00D+00 EMaxC= 1.00D-01 BMatC= 3.18D-07 BMatP= 3.82D-07
 IDIUse=1 WtCom= 1.00D+00 WtEn= 0.00D+00
 Coeff-Com: -0.853D-03 0.633D-01 0.547D+00 0.391D+00
 Coeff:     -0.853D-03 0.633D-01 0.547D+00 0.391D+00
 Gap=     0.094 Goal=   None    Shift=    0.000
 RMSDP=7.47D-07 MaxDP=5.20D-05 DE=-1.08D-07 OVMax= 1.40D-04

 Cycle  12  Pass 1  IDiag  1:
 RMSU=  2.37D-07    CP:  1.00D+00  1.00D+00  8.81D-01  3.51D-01
 E= -2824.18336221635     Delta-E=       -0.000000320916 Rises=F Damp=F
 DIIS: error= 6.89D-06 at cycle   5 NSaved=   5.
 NSaved= 5 IEnMin= 5 EnMin= -2824.18336221635     IErMin= 5 ErrMin= 6.89D-06
 ErrMax= 6.89D-06  0.00D+00 EMaxC= 1.00D-01 BMatC= 1.06D-08 BMatP= 3.18D-07
 IDIUse=1 WtCom= 1.00D+00 WtEn= 0.00D+00
 Coeff-Com: -0.264D-02 0.367D-01 0.329D+00 0.251D+00 0.386D+00
 Coeff:     -0.264D-02 0.367D-01 0.329D+00 0.251D+00 0.386D+00
 Gap=     0.094 Goal=   None    Shift=    0.000
 RMSDP=1.56D-07 MaxDP=9.24D-06 DE=-3.21D-07 OVMax= 4.06D-05

 Cycle  13  Pass 1  IDiag  1:
 RMSU=  9.85D-08    CP:  1.00D+00  1.00D+00  8.83D-01  4.06D-01  5.51D-01
 E= -2824.18336222711     Delta-E=       -0.000000010763 Rises=F Damp=F
 DIIS: error= 1.15D-06 at cycle   6 NSaved=   6.
 NSaved= 6 IEnMin= 6 EnMin= -2824.18336222711     IErMin= 6 ErrMin= 1.15D-06
 ErrMax= 1.15D-06  0.00D+00 EMaxC= 1.00D-01 BMatC= 4.89D-10 BMatP= 1.06D-08
 IDIUse=1 WtCom= 1.00D+00 WtEn= 0.00D+00
 Coeff-Com: -0.147D-02 0.160D-01 0.145D+00 0.111D+00 0.229D+00 0.501D+00
 Coeff:     -0.147D-02 0.160D-01 0.145D+00 0.111D+00 0.229D+00 0.501D+00
 Gap=     0.094 Goal=   None    Shift=    0.000
 RMSDP=3.97D-08 MaxDP=2.92D-06 DE=-1.08D-08 OVMax= 7.00D-06

 Cycle  14  Pass 1  IDiag  1:
 RMSU=  2.63D-08    CP:  1.00D+00  1.00D+00  8.83D-01  4.02D-01  6.12D-01
                    CP:  7.43D-01
 E= -2824.18336222757     Delta-E=       -0.000000000462 Rises=F Damp=F
 DIIS: error= 2.85D-07 at cycle   7 NSaved=   7.
 NSaved= 7 IEnMin= 7 EnMin= -2824.18336222757     IErMin= 7 ErrMin= 2.85D-07
 ErrMax= 2.85D-07  0.00D+00 EMaxC= 1.00D-01 BMatC= 4.60D-11 BMatP= 4.89D-10
 IDIUse=1 WtCom= 1.00D+00 WtEn= 0.00D+00
 Coeff-Com: -0.366D-03 0.300D-02 0.276D-01 0.204D-01 0.686D-01 0.265D+00
 Coeff-Com:  0.616D+00
 Coeff:     -0.366D-03 0.300D-02 0.276D-01 0.204D-01 0.686D-01 0.265D+00
 Coeff:      0.616D+00
 Gap=     0.094 Goal=   None    Shift=    0.000
 RMSDP=1.25D-08 MaxDP=7.70D-07 DE=-4.62D-10 OVMax= 2.86D-06

 Cycle  15  Pass 1  IDiag  1:
 RMSU=  1.11D-08    CP:  1.00D+00  1.00D+00  8.83D-01  4.02D-01  6.12D-01
                    CP:  7.91D-01  8.86D-01
 E= -2824.18336222768     Delta-E=       -0.000000000104 Rises=F Damp=F
 DIIS: error= 2.19D-07 at cycle   8 NSaved=   8.
 NSaved= 8 IEnMin= 8 EnMin= -2824.18336222768     IErMin= 8 ErrMin= 2.19D-07
 ErrMax= 2.19D-07  0.00D+00 EMaxC= 1.00D-01 BMatC= 1.12D-11 BMatP= 4.60D-11
 IDIUse=1 WtCom= 1.00D+00 WtEn= 0.00D+00
 Coeff-Com:  0.583D-04-0.129D-02-0.114D-01-0.947D-02-0.111D-02 0.610D-01
 Coeff-Com:  0.380D+00 0.582D+00
 Coeff:      0.583D-04-0.129D-02-0.114D-01-0.947D-02-0.111D-02 0.610D-01
 Coeff:      0.380D+00 0.582D+00
 Gap=     0.094 Goal=   None    Shift=    0.000
 RMSDP=6.89D-09 MaxDP=5.35D-07 DE=-1.04D-10 OVMax= 1.39D-06

 SCF Done:  E(RB3LYP) =  -2824.18336223     A.U. after   15 cycles
            NFock= 15  Conv=0.69D-08     -V/T= 2.0028
 KE= 2.816301759446D+03 PE=-1.428376212450D+04 EE= 4.830308148096D+03
 Leave Link  502 at Fri Jan 10 16:03:23 2020, MaxMem=  6710886400 cpu:            2191.2 elap:             274.0
 (Enter /apps/gaussian/g16-a03/l601.exe)
 Copying SCF densities to generalized density rwf, IOpCl= 0 IROHF=0.

 **********************************************************************

            Population analysis using the SCF density.

 **********************************************************************

 Orbital symmetries:
       Occupied  (A) (A) (A) (A) (A) (A) (A) (A) (A) (A) (A) (A)
                 (A) (A) (A) (A) (A) (A) (A) (A) (A) (A) (A) (A)
                 (A) (A) (A) (A) (A) (A) (A) (A) (A) (A) (A) (A)
                 (A) (A) (A) (A) (A) (A) (A) (A) (A) (A) (A) (A)
                 (A) (A) (A) (A) (A) (A) (A) (A) (A) (A) (A) (A)
                 (A) (A) (A) (A) (A) (A) (A) (A) (A) (A) (A) (A)
                 (A) (A) (A) (A) (A) (A) (A) (A) (A) (A) (A) (A)
                 (A) (A) (A) (A) (A) (A) (A) (A) (A) (A) (A) (A)
                 (A) (A) (A) (A) (A) (A) (A) (A) (A) (A) (A) (A)
                 (A) (A) (A) (A) (A) (A) (A) (A) (A) (A) (A) (A)
                 (A) (A) (A) (A) (A) (A) (A) (A) (A) (A) (A) (A)
                 (A)
       Virtual   (A) (A) (A) (A) (A) (A) (A) (A) (A) (A) (A) (A)
                 (A) (A) (A) (A) (A) (A) (A) (A) (A) (A) (A) (A)
                 (A) (A) (A) (A) (A) (A) (A) (A) (A) (A) (A) (A)
                 (A) (A) (A) (A) (A) (A) (A) (A) (A) (A) (A) (A)
                 (A) (A) (A) (A) (A) (A) (A) (A) (A) (A) (A) (A)
                 (A) (A) (A) (A) (A) (A) (A) (A) (A) (A) (A) (A)
                 (A) (A) (A) (A) (A) (A) (A) (A) (A) (A) (A) (A)
                 (A) (A) (A) (A) (A) (A) (A) (A) (A) (A) (A) (A)
                 (A) (A) (A) (A) (A) (A) (A) (A) (A) (A) (A) (A)
                 (A) (A) (A) (A) (A) (A) (A) (A) (A) (A) (A) (A)
                 (A) (A) (A) (A) (A) (A) (A) (A) (A) (A) (A) (A)
                 (A) (A) (A) (A) (A) (A) (A) (A) (A) (A) (A) (A)
                 (A) (A) (A) (A) (A) (A) (A) (A) (A) (A) (A) (A)
                 (A) (A) (A) (A) (A) (A) (A) (A) (A) (A) (A) (A)
                 (A) (A) (A) (A) (A) (A) (A) (A) (A) (A) (A) (A)
                 (A) (A) (A) (A) (A) (A) (A) (A) (A) (A) (A) (A)
                 (A) (A) (A) (A) (A) (A) (A) (A) (A) (A) (A) (A)
                 (A) (A) (A) (A) (A) (A) (A) (A) (A) (A) (A) (A)
                 (A) (A) (A) (A) (A) (A) (A) (A) (A) (A) (A) (A)
                 (A) (A) (A) (A) (A) (A) (A) (A) (A) (A) (A) (A)
                 (A) (A) (A) (A) (A) (A) (A) (A) (A) (A) (A) (A)
                 (A) (A) (A) (A) (A) (A) (A) (A) (A) (A) (A) (A)
                 (A) (A) (A) (A) (A) (A) (A) (A) (A) (A) (A) (A)
                 (A) (A) (A) (A) (A) (A) (A) (A) (A) (A) (A) (A)
                 (A) (A) (A) (A) (A) (A) (A) (A) (A) (A) (A) (A)
                 (A) (A) (A) (A) (A) (A) (A) (A) (A) (A) (A) (A)
                 (A) (A) (A) (A) (A) (A) (A) (A) (A) (A) (A) (A)
                 (A) (A) (A) (A) (A) (A) (A) (A) (A) (A) (A) (A)
                 (A) (A) (A) (A) (A) (A) (A) (A) (A) (A) (A) (A)
                 (A) (A) (A) (A) (A) (A) (A) (A) (A) (A) (A) (A)
                 (A) (A) (A) (A) (A) (A) (A) (A) (A) (A) (A) (A)
                 (A) (A) (A) (A) (A) (A) (A) (A) (A) (A) (A) (A)
                 (A) (A) (A) (A) (A) (A) (A) (A) (A) (A) (A) (A)
                 (A) (A) (A) (A) (A) (A) (A) (A) (A) (A) (A) (A)
                 (A) (A) (A) (A) (A) (A) (A) (A) (A) (A) (A) (A)
                 (A) (A) (A) (A) (A) (A) (A) (A) (A) (A) (A) (A)
                 (A) (A) (A) (A) (A) (A) (A) (A) (A) (A) (A) (A)
                 (A) (A) (A) (A) (A) (A) (A) (A) (A) (A) (A) (A)
                 (A) (A) (A) (A) (A) (A) (A) (A) (A) (A) (A) (A)
                 (A) (A) (A) (A) (A) (A) (A) (A) (A) (A) (A) (A)
                 (A) (A) (A) (A) (A) (A) (A) (A) (A) (A) (A) (A)
                 (A) (A) (A) (A) (A) (A) (A) (A) (A) (A) (A) (A)
                 (A) (A) (A) (A) (A) (A) (A) (A) (A) (A) (A) (A)
                 (A) (A) (A) (A) (A) (A) (A) (A) (A) (A) (A) (A)
                 (A) (A) (A) (A) (A) (A) (A) (A) (A) (A) (A) (A)
                 (A) (A) (A) (A) (A) (A) (A) (A) (A) (A) (A) (A)
                 (A) (A) (A) (A) (A) (A) (A) (A) (A) (A) (A) (A)
                 (A) (A) (A) (A) (A) (A) (A) (A) (A) (A) (A) (A)
                 (A) (A) (A) (A) (A) (A) (A) (A) (A) (A) (A) (A)
                 (A) (A) (A) (A) (A) (A) (A) (A) (A) (A) (A) (A)
                 (A) (A) (A) (A) (A) (A) (A) (A) (A) (A) (A) (A)
                 (A) (A) (A) (A) (A) (A) (A) (A) (A) (A) (A) (A)
                 (A) (A) (A) (A) (A) (A) (A)
 The electronic state is 1-A.
 Alpha  occ. eigenvalues --  -88.86943 -88.86933 -88.86713 -88.86711 -19.15115
 Alpha  occ. eigenvalues --  -19.15099 -19.14970 -19.14968 -10.23404 -10.23381
 Alpha  occ. eigenvalues --  -10.23274 -10.23271 -10.23250 -10.23238 -10.23191
 Alpha  occ. eigenvalues --  -10.23181 -10.21177 -10.21135 -10.20723 -10.20719
 Alpha  occ. eigenvalues --  -10.20667 -10.20660 -10.19867 -10.19848 -10.17780
 Alpha  occ. eigenvalues --  -10.17767 -10.17540 -10.17537 -10.16364 -10.16359
 Alpha  occ. eigenvalues --  -10.16123 -10.16120  -7.95304  -7.95295  -7.95092
 Alpha  occ. eigenvalues --   -7.95090  -5.91645  -5.91636  -5.91449  -5.91447
 Alpha  occ. eigenvalues --   -5.91282  -5.91274  -5.91091  -5.91089  -5.90835
 Alpha  occ. eigenvalues --   -5.90826  -5.90581  -5.90580  -1.05448  -1.05428
 Alpha  occ. eigenvalues --   -1.05318  -1.05308  -0.87968  -0.86987  -0.86053
 Alpha  occ. eigenvalues --   -0.84746  -0.79052  -0.77826  -0.77801  -0.77212
 Alpha  occ. eigenvalues --   -0.76229  -0.75644  -0.72112  -0.71989  -0.71445
 Alpha  occ. eigenvalues --   -0.71052  -0.70155  -0.68452  -0.64590  -0.63725
 Alpha  occ. eigenvalues --   -0.63682  -0.62885  -0.61254  -0.59348  -0.57823
 Alpha  occ. eigenvalues --   -0.56419  -0.55192  -0.54828  -0.54721  -0.53332
 Alpha  occ. eigenvalues --   -0.53088  -0.51739  -0.48918  -0.48907  -0.48710
 Alpha  occ. eigenvalues --   -0.48697  -0.48619  -0.47175  -0.45875  -0.45735
 Alpha  occ. eigenvalues --   -0.45313  -0.44180  -0.43346  -0.42926  -0.42915
 Alpha  occ. eigenvalues --   -0.41624  -0.41235  -0.40401  -0.40134  -0.40107
 Alpha  occ. eigenvalues --   -0.40080  -0.39873  -0.39792  -0.39525  -0.39035
 Alpha  occ. eigenvalues --   -0.38913  -0.38800  -0.37948  -0.37647  -0.37547
 Alpha  occ. eigenvalues --   -0.36935  -0.36295  -0.36188  -0.35836  -0.35083
 Alpha  occ. eigenvalues --   -0.34356  -0.34004  -0.33507  -0.32641  -0.32348
 Alpha  occ. eigenvalues --   -0.32192  -0.32021  -0.31856  -0.31106  -0.30829
 Alpha  occ. eigenvalues --   -0.28522  -0.26085  -0.23904  -0.23778  -0.23301
 Alpha  occ. eigenvalues --   -0.23126  -0.19695  -0.16244
 Alpha virt. eigenvalues --   -0.06853  -0.02707  -0.00285   0.00366   0.00732
 Alpha virt. eigenvalues --    0.01446   0.01575   0.03501   0.04110   0.04132
 Alpha virt. eigenvalues --    0.04412   0.04699   0.04989   0.05232   0.06290
 Alpha virt. eigenvalues --    0.06626   0.06889   0.07077   0.08351   0.08441
 Alpha virt. eigenvalues --    0.08970   0.09170   0.09207   0.09266   0.09575
 Alpha virt. eigenvalues --    0.09840   0.09987   0.10096   0.10766   0.11342
 Alpha virt. eigenvalues --    0.11377   0.11671   0.11717   0.12025   0.12187
 Alpha virt. eigenvalues --    0.12527   0.12646   0.13343   0.13478   0.13550
 Alpha virt. eigenvalues --    0.13925   0.14295   0.14329   0.14600   0.15969
 Alpha virt. eigenvalues --    0.16817   0.17160   0.18096   0.18501   0.19360
 Alpha virt. eigenvalues --    0.19448   0.19840   0.20349   0.20618   0.21301
 Alpha virt. eigenvalues --    0.21520   0.21666   0.22656   0.22666   0.22815
 Alpha virt. eigenvalues --    0.23806   0.24141   0.24229   0.25573   0.25778
 Alpha virt. eigenvalues --    0.27023   0.27706   0.28551   0.28600   0.29640
 Alpha virt. eigenvalues --    0.29665   0.29862   0.29905   0.31078   0.31490
 Alpha virt. eigenvalues --    0.31745   0.32662   0.33217   0.33800   0.35352
 Alpha virt. eigenvalues --    0.35617   0.36357   0.36762   0.36766   0.36882
 Alpha virt. eigenvalues --    0.37345   0.37426   0.37511   0.38047   0.38394
 Alpha virt. eigenvalues --    0.39465   0.39528   0.40137   0.40536   0.40927
 Alpha virt. eigenvalues --    0.41090   0.41378   0.41701   0.42329   0.42594
 Alpha virt. eigenvalues --    0.43366   0.43463   0.43471   0.43956   0.44202
 Alpha virt. eigenvalues --    0.44233   0.44448   0.45556   0.45704   0.45888
 Alpha virt. eigenvalues --    0.46309   0.46653   0.46789   0.49035   0.49352
 Alpha virt. eigenvalues --    0.49366   0.50499   0.50580   0.50826   0.51324
 Alpha virt. eigenvalues --    0.51344   0.52136   0.52143   0.52197   0.53152
 Alpha virt. eigenvalues --    0.55030   0.55254   0.55333   0.55537   0.55800
 Alpha virt. eigenvalues --    0.55849   0.56306   0.56612   0.56931   0.56965
 Alpha virt. eigenvalues --    0.57592   0.57601   0.58539   0.58950   0.59023
 Alpha virt. eigenvalues --    0.59301   0.59977   0.60408   0.60458   0.60499
 Alpha virt. eigenvalues --    0.60543   0.60749   0.61306   0.61356   0.61939
 Alpha virt. eigenvalues --    0.61958   0.62718   0.63132   0.63239   0.63399
 Alpha virt. eigenvalues --    0.63637   0.63994   0.64194   0.64411   0.65223
 Alpha virt. eigenvalues --    0.65237   0.65784   0.66348   0.67240   0.68551
 Alpha virt. eigenvalues --    0.68900   0.69129   0.70289   0.70600   0.72728
 Alpha virt. eigenvalues --    0.73169   0.74439   0.74472   0.74496   0.74707
 Alpha virt. eigenvalues --    0.74884   0.75287   0.75993   0.76667   0.76868
 Alpha virt. eigenvalues --    0.77458   0.77824   0.78164   0.78406   0.78851
 Alpha virt. eigenvalues --    0.79619   0.80672   0.81815   0.81970   0.83095
 Alpha virt. eigenvalues --    0.83907   0.84039   0.84300   0.85455   0.85709
 Alpha virt. eigenvalues --    0.86491   0.87181   0.87856   0.88068   0.88295
 Alpha virt. eigenvalues --    0.89086   0.89438   0.89893   0.90574   0.90858
 Alpha virt. eigenvalues --    0.91681   0.91767   0.91968   0.92922   0.94142
 Alpha virt. eigenvalues --    0.94308   0.94592   0.94689   0.94821   0.95180
 Alpha virt. eigenvalues --    0.97065   0.97213   0.97806   0.99744   1.00510
 Alpha virt. eigenvalues --    1.00990   1.01208   1.01291   1.01345   1.02326
 Alpha virt. eigenvalues --    1.03697   1.04362   1.04435   1.04901   1.05719
 Alpha virt. eigenvalues --    1.06322   1.08260   1.08592   1.09125   1.09217
 Alpha virt. eigenvalues --    1.10157   1.10770   1.11973   1.13036   1.13129
 Alpha virt. eigenvalues --    1.16613   1.16731   1.17781   1.18313   1.18697
 Alpha virt. eigenvalues --    1.19289   1.19572   1.20381   1.21206   1.23777
 Alpha virt. eigenvalues --    1.23883   1.23982   1.24341   1.25352   1.25366
 Alpha virt. eigenvalues --    1.26843   1.26908   1.27921   1.28910   1.29147
 Alpha virt. eigenvalues --    1.29179   1.30525   1.32047   1.32534   1.32556
 Alpha virt. eigenvalues --    1.36577   1.38317   1.40164   1.41274   1.41904
 Alpha virt. eigenvalues --    1.42471   1.44388   1.44703   1.45163   1.45347
 Alpha virt. eigenvalues --    1.45642   1.45654   1.45857   1.45893   1.46305
 Alpha virt. eigenvalues --    1.46312   1.46510   1.46568   1.48550   1.48598
 Alpha virt. eigenvalues --    1.48721   1.49069   1.49161   1.49554   1.50078
 Alpha virt. eigenvalues --    1.50438   1.51080   1.51635   1.51873   1.52102
 Alpha virt. eigenvalues --    1.52179   1.52453   1.52694   1.53208   1.54660
 Alpha virt. eigenvalues --    1.55680   1.55945   1.57127   1.57305   1.57775
 Alpha virt. eigenvalues --    1.58032   1.59057   1.59211   1.59507   1.59587
 Alpha virt. eigenvalues --    1.59589   1.59919   1.60246   1.60943   1.61980
 Alpha virt. eigenvalues --    1.61990   1.62001   1.62412   1.62424   1.62513
 Alpha virt. eigenvalues --    1.63868   1.64077   1.64715   1.65846   1.67428
 Alpha virt. eigenvalues --    1.67797   1.67963   1.68344   1.70455   1.71478
 Alpha virt. eigenvalues --    1.71804   1.72537   1.73094   1.73265   1.73446
 Alpha virt. eigenvalues --    1.74829   1.75004   1.75311   1.76548   1.77501
 Alpha virt. eigenvalues --    1.77657   1.77817   1.78093   1.78300   1.79960
 Alpha virt. eigenvalues --    1.80340   1.81512   1.81760   1.82538   1.82758
 Alpha virt. eigenvalues --    1.83654   1.83782   1.84194   1.85599   1.87309
 Alpha virt. eigenvalues --    1.87469   1.88141   1.88814   1.88822   1.90945
 Alpha virt. eigenvalues --    1.91971   1.92668   1.93814   1.94430   1.94469
 Alpha virt. eigenvalues --    1.94650   1.94854   1.97604   1.97959   1.98185
 Alpha virt. eigenvalues --    1.98729   1.99026   1.99398   1.99865   2.00555
 Alpha virt. eigenvalues --    2.00832   2.01297   2.01385   2.02119   2.03033
 Alpha virt. eigenvalues --    2.03205   2.03892   2.03953   2.05510   2.06866
 Alpha virt. eigenvalues --    2.07633   2.07943   2.09168   2.10061   2.10907
 Alpha virt. eigenvalues --    2.11244   2.12247   2.12723   2.13708   2.14082
 Alpha virt. eigenvalues --    2.14121   2.14766   2.14806   2.15179   2.16015
 Alpha virt. eigenvalues --    2.16088   2.18310   2.18531   2.21723   2.22026
 Alpha virt. eigenvalues --    2.22127   2.22401   2.23090   2.23517   2.28222
 Alpha virt. eigenvalues --    2.31651   2.32960   2.33061   2.33821   2.35084
 Alpha virt. eigenvalues --    2.36184   2.36243   2.36476   2.36547   2.36559
 Alpha virt. eigenvalues --    2.36592   2.38198   2.38502   2.38723   2.38741
 Alpha virt. eigenvalues --    2.42472   2.43222   2.43922   2.44070   2.44611
 Alpha virt. eigenvalues --    2.44967   2.47442   2.48234   2.48898   2.48934
 Alpha virt. eigenvalues --    2.49114   2.49132   2.49166   2.50519   2.54875
 Alpha virt. eigenvalues --    2.55217   2.55289   2.55429   2.55972   2.56025
 Alpha virt. eigenvalues --    2.57228   2.57429   2.57495   2.58338   2.58340
 Alpha virt. eigenvalues --    2.58498   2.58655   2.58849   2.59031   2.59889
 Alpha virt. eigenvalues --    2.59979   2.60229   2.60519   2.60618   2.61365
 Alpha virt. eigenvalues --    2.61693   2.62039   2.62919   2.63037   2.63362
 Alpha virt. eigenvalues --    2.63935   2.64611   2.64730   2.65528   2.66310
 Alpha virt. eigenvalues --    2.67559   2.68349   2.71342   2.73149   2.75663
 Alpha virt. eigenvalues --    2.75879   2.76847   2.77337   2.78317   2.81322
 Alpha virt. eigenvalues --    2.83900   2.83998   2.84679   2.84936   2.87233
 Alpha virt. eigenvalues --    2.87365   2.88691   2.89144   2.90753   2.92600
 Alpha virt. eigenvalues --    2.92627   2.92687   2.93053   2.93256   2.94348
 Alpha virt. eigenvalues --    2.94684   2.95014   2.96160   2.98397   3.03211
 Alpha virt. eigenvalues --    3.04376   3.05234   3.05252   3.05416   3.05543
 Alpha virt. eigenvalues --    3.06450   3.09522   3.14268   3.14806   3.15673
 Alpha virt. eigenvalues --    3.15814   3.16527   3.16775   3.19131   3.19708
 Alpha virt. eigenvalues --    3.20581   3.20644   3.20989   3.21191   3.21221
 Alpha virt. eigenvalues --    3.23647   3.24616   3.25093   3.29311   3.30360
 Alpha virt. eigenvalues --    3.31926   3.32930   3.34381   3.35779   3.36554
 Alpha virt. eigenvalues --    3.36608   3.38637   3.41677   3.42635   3.49195
 Alpha virt. eigenvalues --    3.49326   3.60378   3.68058   3.68393   3.77491
 Alpha virt. eigenvalues --    3.77712   3.77809   3.77913   3.83674   3.83934
 Alpha virt. eigenvalues --    3.84036   3.84164   3.84676   3.84805   3.84817
 Alpha virt. eigenvalues --    3.85051   3.85057   3.95837   3.98623   4.04386
 Alpha virt. eigenvalues --    4.04482   4.05602   4.05661   4.10944   4.11137
 Alpha virt. eigenvalues --    4.11677   4.13233   4.17311   4.19163   4.23452
 Alpha virt. eigenvalues --    4.25832   4.26761   4.27472   4.45012   4.56856
 Alpha virt. eigenvalues --    4.73100   4.90503   4.90640   4.92631   4.92777
 Alpha virt. eigenvalues --    5.28720   5.28866   5.30383   5.31268   5.72747
 Alpha virt. eigenvalues --    5.73705   5.75288   5.75900   7.73822   7.75158
 Alpha virt. eigenvalues --    7.75616   7.76036  17.20133  17.20708  17.21885
 Alpha virt. eigenvalues --   17.22809  17.40251  17.40401  17.43736  17.44099
 Alpha virt. eigenvalues --   17.47232  17.51156  17.53000  17.54482  23.37342
 Alpha virt. eigenvalues --   23.45791  23.60564  23.68772  23.75282  23.78029
 Alpha virt. eigenvalues --   23.78195  23.78465  23.78583  23.80366  23.83434
 Alpha virt. eigenvalues --   23.89702  23.96654  23.96670  23.96896  23.96915
 Alpha virt. eigenvalues --   24.03456  24.03596  24.05522  24.05651  24.12671
 Alpha virt. eigenvalues --   24.13311  24.16476  24.16802  49.92215  49.92521
 Alpha virt. eigenvalues --   49.93107  49.93382 188.84950 188.86285 188.86854
 Alpha virt. eigenvalues --  188.87423
          Condensed to atoms (all electrons):
 Mulliken charges:
               1
     1  C   -0.231988
     2  C    0.246352
     3  C   -0.081122
     4  C   -0.296044
     5  S    0.276385
     6  O   -0.399075
     7  H    0.106598
     8  C   -0.214041
     9  C    0.249603
    10  C   -0.061545
    11  C   -0.229481
    12  S    0.310416
    13  O   -0.403620
    14  H    0.115879
    15  C   -0.042323
    16  H    0.113047
    17  H    0.113042
    18  C   -0.048215
    19  H    0.114883
    20  H    0.114885
    21  H    0.129911
    22  C   -0.214335
    23  C    0.249760
    24  C   -0.061778
    25  C   -0.229298
    26  S    0.310504
    27  O   -0.403736
    28  H    0.115788
    29  C   -0.231649
    30  C    0.246378
    31  C   -0.081100
    32  C   -0.295682
    33  S    0.275978
    34  O   -0.399466
    35  H    0.106514
    36  C   -0.048147
    37  H    0.115072
    38  H    0.115005
    39  C   -0.041997
    40  H    0.113161
    41  H    0.113007
    42  H    0.129856
    43  C   -0.293511
    44  H    0.104731
    45  H    0.124440
    46  H    0.124535
    47  C   -0.297034
    48  H    0.123982
    49  H    0.124054
    50  H    0.105176
    51  C   -0.293431
    52  H    0.104792
    53  H    0.124460
    54  H    0.124467
    55  C   -0.297161
    56  H    0.123964
    57  H    0.124014
    58  H    0.105143
 Sum of Mulliken charges =  -0.00000
 Mulliken charges with hydrogens summed into heavy atoms:
               1
     1  C   -0.231988
     2  C    0.246352
     3  C    0.025475
     4  C   -0.166134
     5  S    0.276385
     6  O   -0.399075
     8  C   -0.214041
     9  C    0.249603
    10  C    0.054334
    11  C   -0.229481
    12  S    0.310416
    13  O   -0.403620
    15  C    0.183765
    18  C    0.181553
    22  C   -0.214335
    23  C    0.249760
    24  C    0.054010
    25  C   -0.229298
    26  S    0.310504
    27  O   -0.403736
    29  C   -0.231649
    30  C    0.246378
    31  C    0.025414
    32  C   -0.165827
    33  S    0.275978
    34  O   -0.399466
    36  C    0.181930
    39  C    0.184172
    43  C    0.060195
    47  C    0.056179
    51  C    0.060288
    55  C    0.055960
 Electronic spatial extent (au):  <R**2>=          25261.7313
 Charge=              0.0000 electrons
 Dipole moment (field-independent basis, Debye):
    X=              0.0006    Y=             -0.0016    Z=             -0.0005  Tot=              0.0018
 Quadrupole moment (field-independent basis, Debye-Ang):
   XX=           -186.7345   YY=           -173.4590   ZZ=           -227.1614
   XY=            -19.8134   XZ=              0.0041   YZ=             -0.0013
 Traceless Quadrupole moment (field-independent basis, Debye-Ang):
   XX=              9.0505   YY=             22.3259   ZZ=            -31.3764
   XY=            -19.8134   XZ=              0.0041   YZ=             -0.0013
 Octapole moment (field-independent basis, Debye-Ang**2):
  XXX=             -0.2266  YYY=             -0.0231  ZZZ=              0.0088  XYY=              0.0607
  XXY=              0.0791  XXZ=             -0.0272  XZZ=             -0.0545  YZZ=              0.0062
  YYZ=             -0.0186  XYZ=              0.0091
 Hexadecapole moment (field-independent basis, Debye-Ang**3):
 XXXX=         -22327.6578 YYYY=          -7771.6858 ZZZZ=           -320.6670 XXXY=           -913.3239
 XXXZ=              0.1774 YYYX=           -215.8110 YYYZ=             -0.0009 ZZZX=              0.0060
 ZZZY=             -0.0368 XXYY=          -4937.2157 XXZZ=          -4577.9000 YYZZ=          -1491.2850
 XXYZ=             -0.0464 YYXZ=              0.0705 ZZXY=            -14.9258
 N-N= 3.812968854732D+03 E-N=-1.428376212629D+04  KE= 2.816301759446D+03
 No NMR shielding tensors so no spin-rotation constants.
 Leave Link  601 at Fri Jan 10 16:03:31 2020, MaxMem=  6710886400 cpu:               4.7 elap:               0.7
 (Enter /apps/gaussian/g16-a03/l602.exe)
 FitSet:  NAtFit=    58 NAtPot=    58 NAtFrz=     0 MDM=    62 TotChg=   0.00000
 Breneman (CHELPG) radii used.
 Generate Potential Derived Charges using the Breneman model, NDens= 1.
 Grid spacing= 0.300 Box extension= 2.800
 NStep X,Y,Z=   75     61     26   Total possible points=      118950
 Number of Points to Fit=   33556

 **********************************************************************

            Electrostatic Properties Using The SCF Density

 **********************************************************************

       Atomic Center    1 is at   4.672489  0.117566  0.000000
       Atomic Center    2 is at   5.342239 -1.093793  0.000000
       Atomic Center    3 is at   6.769540 -1.010805  0.000000
       Atomic Center    4 is at   7.234039  0.269572  0.000000
       Atomic Center    5 is at   5.904279  1.479249  0.000000
       Atomic Center    6 is at   4.600100 -2.271194  0.000000
       Atomic Center    7 is at   7.420523 -1.871097  0.000000
       Atomic Center    8 is at   3.269362  0.368495  0.000000
       Atomic Center    9 is at   2.596608  1.578865  0.000000
       Atomic Center   10 is at   1.179336  1.503842  0.000000
       Atomic Center   11 is at   0.678830  0.221592  0.000000
       Atomic Center   12 is at   2.042569 -0.994205  0.000000
       Atomic Center   13 is at   3.340737  2.753259  0.000000
       Atomic Center   14 is at   0.538378  2.371098  0.000000
       Atomic Center   15 is at   5.304646 -3.540676  0.000000
       Atomic Center   16 is at   5.922274 -3.647846  0.895000
       Atomic Center   17 is at   5.922274 -3.647846 -0.895000
       Atomic Center   18 is at   2.640205  4.026727  0.000000
       Atomic Center   19 is at   2.023581  4.134893 -0.895000
       Atomic Center   20 is at   2.023581  4.134893  0.895000
       Atomic Center   21 is at   8.253251  0.612994  0.000000
       Atomic Center   22 is at  -3.269267 -0.368547  0.000000
       Atomic Center   23 is at  -2.596513 -1.578917  0.000000
       Atomic Center   24 is at  -1.179237 -1.502894  0.000000
       Atomic Center   25 is at  -0.678731 -0.220644  0.000000
       Atomic Center   26 is at  -2.042474  0.994153  0.000000
       Atomic Center   27 is at  -3.340642 -2.753311  0.000000
       Atomic Center   28 is at  -0.538279 -2.370150  0.000000
       Atomic Center   29 is at  -4.672394 -0.117618  0.000000
       Atomic Center   30 is at  -5.342148  1.092741  0.000000
       Atomic Center   31 is at  -6.769448  1.009753  0.000000
       Atomic Center   32 is at  -7.233944 -0.269624  0.000000
       Atomic Center   33 is at  -5.904184 -1.479301  0.000000
       Atomic Center   34 is at  -4.601005  2.271146  0.000000
       Atomic Center   35 is at  -7.420431  1.870044  0.000000
       Atomic Center   36 is at  -2.639110 -4.026783  0.000000
       Atomic Center   37 is at  -2.022486 -4.134949  0.894000
       Atomic Center   38 is at  -2.023486 -4.134945 -0.895000
       Atomic Center   39 is at  -5.305551  3.540628  0.000000
       Atomic Center   40 is at  -5.922179  3.647794 -0.894000
       Atomic Center   41 is at  -5.922179  3.647794  0.895000
       Atomic Center   42 is at  -8.252156 -0.613050  0.000000
       Atomic Center   43 is at  -3.748713 -5.094669  0.000000
       Atomic Center   44 is at  -3.306161 -6.068858 -0.001956
       Atomic Center   45 is at  -4.354293 -4.979781  0.874628
       Atomic Center   46 is at  -4.356642 -4.977340 -0.872672
       Atomic Center   47 is at   4.200627 -4.614334  0.000000
       Atomic Center   48 is at   3.594456 -4.502605  0.874628
       Atomic Center   49 is at   3.592094 -4.500176 -0.872672
       Atomic Center   50 is at   4.648251 -5.586202 -0.001956
       Atomic Center   51 is at   3.749122  5.095326  0.000000
       Atomic Center   52 is at   3.305944  6.069232 -0.000196
       Atomic Center   53 is at   4.355834  4.979728  0.873749
       Atomic Center   54 is at   4.356069  4.979485 -0.873554
       Atomic Center   55 is at  -4.201531  4.614285  0.000000
       Atomic Center   56 is at  -3.595361  4.502557  0.874628
       Atomic Center   57 is at  -3.592999  4.500128 -0.872672
       Atomic Center   58 is at  -4.649156  5.586154 -0.001956
   33556 points will be used for fitting atomic charges
 Fitting point charges to electrostatic potential
 Charges from ESP fit, RMS=   0.00404 RRMS=   0.29255:
 ESP charges:
               1
     1  C   -0.065227
     2  C    0.263681
     3  C   -0.242740
     4  C   -0.186717
     5  S   -0.025201
     6  O   -0.266631
     7  H    0.131869
     8  C   -0.018132
     9  C    0.265213
    10  C   -0.322573
    11  C    0.083274
    12  S   -0.172007
    13  O   -0.350928
    14  H    0.217097
    15  C    0.271856
    16  H   -0.009184
    17  H   -0.009225
    18  C    0.380141
    19  H   -0.042955
    20  H   -0.042950
    21  H    0.180841
    22  C   -0.017540
    23  C    0.260423
    24  C   -0.318345
    25  C    0.085223
    26  S   -0.172512
    27  O   -0.348847
    28  H    0.215239
    29  C   -0.063899
    30  C    0.263863
    31  C   -0.240627
    32  C   -0.189137
    33  S   -0.025734
    34  O   -0.267948
    35  H    0.130886
    36  C    0.378966
    37  H   -0.042456
    38  H   -0.042557
    39  C    0.272968
    40  H   -0.009100
    41  H   -0.009161
    42  H    0.181700
    43  C   -0.126538
    44  H    0.019754
    45  H    0.039932
    46  H    0.040117
    47  C   -0.129527
    48  H    0.046724
    49  H    0.046843
    50  H    0.022521
    51  C   -0.126207
    52  H    0.019703
    53  H    0.039861
    54  H    0.039868
    55  C   -0.130639
    56  H    0.046954
    57  H    0.047068
    58  H    0.022659
 Sum of ESP charges =   0.00000
 ESP charges with hydrogens summed into heavy atoms:
               1
     1  C   -0.065227
     2  C    0.263681
     3  C   -0.110871
     4  C   -0.005876
     5  S   -0.025201
     6  O   -0.266631
     8  C   -0.018132
     9  C    0.265213
    10  C   -0.105476
    11  C    0.083274
    12  S   -0.172007
    13  O   -0.350928
    15  C    0.253447
    18  C    0.294237
    22  C   -0.017540
    23  C    0.260423
    24  C   -0.103106
    25  C    0.085223
    26  S   -0.172512
    27  O   -0.348847
    29  C   -0.063899
    30  C    0.263863
    31  C   -0.109740
    32  C   -0.007437
    33  S   -0.025734
    34  O   -0.267948
    36  C    0.293954
    39  C    0.254706
    43  C   -0.026735
    47  C   -0.013440
    51  C   -0.026775
    55  C   -0.013959
 Charge=   0.00000 Dipole=     0.0088    -0.0009    -0.0006 Tot=     0.0089
 -----------------------------------------------------------------

              Electrostatic Properties (Atomic Units)

 -----------------------------------------------------------------
    Center     Electric         -------- Electric Field --------
               Potential          X             Y             Z
 -----------------------------------------------------------------
    1 Atom    -14.742224
    2 Atom    -14.716061
    3 Atom    -14.772744
    4 Atom    -14.752357
    5 Atom    -59.226027
    6 Atom    -22.343530
    7 Atom     -1.092531
    8 Atom    -14.741820
    9 Atom    -14.715947
   10 Atom    -14.774909
   11 Atom    -14.738712
   12 Atom    -59.228364
   13 Atom    -22.344962
   14 Atom     -1.093221
   15 Atom    -14.711179
   16 Atom     -1.109090
   17 Atom     -1.109099
   18 Atom    -14.713342
   19 Atom     -1.111144
   20 Atom     -1.111143
   21 Atom     -1.085443
   22 Atom    -14.741849
   23 Atom    -14.715966
   24 Atom    -14.774941
   25 Atom    -14.738749
   26 Atom    -59.228384
   27 Atom    -22.344961
   28 Atom     -1.093317
   29 Atom    -14.742325
   30 Atom    -14.716196
   31 Atom    -14.772906
   32 Atom    -14.752589
   33 Atom    -59.226123
   34 Atom    -22.343682
   35 Atom     -1.092568
   36 Atom    -14.713468
   37 Atom     -1.111111
   38 Atom     -1.111161
   39 Atom    -14.711431
   40 Atom     -1.109255
   41 Atom     -1.109209
   42 Atom     -1.085564
   43 Atom    -14.786205
   44 Atom     -1.116528
   45 Atom     -1.123945
   46 Atom     -1.123922
   47 Atom    -14.783775
   48 Atom     -1.121411
   49 Atom     -1.121398
   50 Atom     -1.114144
   51 Atom    -14.786178
   52 Atom     -1.116488
   53 Atom     -1.123916
   54 Atom     -1.123915
   55 Atom    -14.783829
   56 Atom     -1.121464
   57 Atom     -1.121449
   58 Atom     -1.114176
 -----------------------------------------------------------------
 Leave Link  602 at Fri Jan 10 16:03:58 2020, MaxMem=  6710886400 cpu:              23.9 elap:               3.3
 (Enter /apps/gaussian/g16-a03/l9999.exe)
 1\1\GINC-CX1-141-15-4\SP\RB3LYP\6-311G(d,p)\C24H26O4S4\NS5018\10-Jan-2
 020\0\\#p Pop=CHelpG b3lyp/6-311g**\\OBT_2m_eth_opt_freq.gjf\\0,1\C,0,
 4.672,-0.134,0.\C,0,5.346,1.075,0.\C,0,6.773,0.987,0.\C,0,7.233,-0.295
 ,0.\S,0,5.899,-1.5,0.\O,0,4.608,2.255,0.\H,0,7.427,1.845,0.\C,0,3.268,
 -0.38,0.\C,0,2.591,-1.588,0.\C,0,1.174,-1.508,0.\C,0,0.678,-0.224,0.\S
 ,0,2.046,0.987,0.\O,0,3.331,-2.765,0.\H,0,0.53,-2.373,0.\C,0,5.317,3.5
 22,0.\H,0,5.935,3.627,-0.895\H,0,5.935,3.627,0.895\C,0,2.626,-4.036,0.
 \H,0,2.009,-4.142,0.895\H,0,2.009,-4.142,-0.895\H,0,8.251,-0.642,0.\C,
 0,-3.268,0.38,0.\C,0,-2.591,1.588,0.\C,0,-1.174,1.507,0.\C,0,-0.678,0.
 223,0.\S,0,-2.046,-0.987,0.\O,0,-3.331,2.765,0.\H,0,-0.53,2.372,0.\C,0
 ,-4.672,0.134,0.\C,0,-5.346,-1.074,0.\C,0,-6.773,-0.986,0.\C,0,-7.233,
 0.295,0.\S,0,-5.899,1.5,0.\O,0,-4.609,-2.255,0.\H,0,-7.427,-1.844,0.\C
 ,0,-2.625,4.036,0.\H,0,-2.008,4.142,-0.894\H,0,-2.009,4.142,0.895\C,0,
 -5.318,-3.522,0.\H,0,-5.935,-3.627,0.894\H,0,-5.935,-3.627,-0.895\H,0,
 -8.25,0.642,0.\C,0,-3.73084605,5.10777634,0.\H,0,-3.28487588,6.0804051
 3,0.00195626\H,0,-4.33682566,4.99501588,-0.8746278\H,0,-4.33918388,4.9
 9258343,0.87267157\C,0,4.21675744,4.59952787,0.\H,0,3.61019827,4.48992
 881,-0.87462793\H,0,3.60782762,4.48750819,0.87267179\H,0,4.66779255,5.
 5698183,0.00195613\C,0,3.73115778,-5.10848602,0.\H,0,3.28456201,-6.080
 82967,0.00019557\H,0,4.33827222,-4.99501968,-0.87374908\H,0,4.33850819
 ,-4.99477725,0.87355355\C,0,-4.21775744,-4.59952787,0.\H,0,-3.61119827
 ,-4.48992881,-0.87462793\H,0,-3.60882762,-4.48750819,0.87267179\H,0,-4
 .66879255,-5.5698183,0.00195613\\Version=ES64L-G16RevA.03\State=1-A\HF
 =-2824.1833622\RMSD=6.892e-09\Dipole=0.0002213,0.0006397,0.0001896\Qua
 drupole=6.832381,16.4952094,-23.3275903,14.7651119,-0.0030212,-0.00096
 07\PG=C01 [X(C24H26O4S4)]\\@


 BLACK HOLES SUCK.
 Job cpu time:       0 days  0 hours 38 minutes 24.6 seconds.
 Elapsed time:       0 days  0 hours  4 minutes 48.8 seconds.
 File lengths (MBytes):  RWF=    319 Int=      0 D2E=      0 Chk=     35 Scr=      1
 Normal termination of Gaussian 16 at Fri Jan 10 16:03:59 2020.
