 Entering Gaussian System, Link 0=g16
 Input=OBT_4m_opt.gjf
 Output=OBT_4m_opt.log
 Initial command:
 /apps/gaussian/g16-a03/l1.exe "/tmp/pbs.947175.pbs/Gau-18568.inp" -scrdir="/tmp/pbs.947175.pbs/"
 Entering Link 1 = /apps/gaussian/g16-a03/l1.exe PID=     18572.
  
 Copyright (c) 1988,1990,1992,1993,1995,1998,2003,2009,2016,
            Gaussian, Inc.  All Rights Reserved.
  
 This is part of the Gaussian(R) 16 program.  It is based on
 the Gaussian(R) 09 system (copyright 2009, Gaussian, Inc.),
 the Gaussian(R) 03 system (copyright 2003, Gaussian, Inc.),
 the Gaussian(R) 98 system (copyright 1998, Gaussian, Inc.),
 the Gaussian(R) 94 system (copyright 1995, Gaussian, Inc.),
 the Gaussian 92(TM) system (copyright 1992, Gaussian, Inc.),
 the Gaussian 90(TM) system (copyright 1990, Gaussian, Inc.),
 the Gaussian 88(TM) system (copyright 1988, Gaussian, Inc.),
 the Gaussian 86(TM) system (copyright 1986, Carnegie Mellon
 University), and the Gaussian 82(TM) system (copyright 1983,
 Carnegie Mellon University). Gaussian is a federally registered
 trademark of Gaussian, Inc.
  
 This software contains proprietary and confidential information,
 including trade secrets, belonging to Gaussian, Inc.
  
 This software is provided under written license and may be
 used, copied, transmitted, or stored only in accord with that
 written license.
  
 The following legend is applicable only to US Government
 contracts under FAR:
  
                    RESTRICTED RIGHTS LEGEND
  
 Use, reproduction and disclosure by the US Government is
 subject to restrictions as set forth in subparagraphs (a)
 and (c) of the Commercial Computer Software - Restricted
 Rights clause in FAR 52.227-19.
  
 Gaussian, Inc.
 340 Quinnipiac St., Bldg. 40, Wallingford CT 06492
  
  
 ---------------------------------------------------------------
 Warning -- This program may not be used in any manner that
 competes with the business of Gaussian, Inc. or will provide
 assistance to any competitor of Gaussian, Inc.  The licensee
 of this program is prohibited from giving any competitor of
 Gaussian, Inc. access to this program.  By using this program,
 the user acknowledges that Gaussian, Inc. is engaged in the
 business of creating and licensing software in the field of
 computational chemistry and represents and warrants to the
 licensee that it is not a competitor of Gaussian, Inc. and that
 it will not use this program in any manner prohibited above.
 ---------------------------------------------------------------
  

 Cite this work as:
 Gaussian 16, Revision A.03,
 M. J. Frisch, G. W. Trucks, H. B. Schlegel, G. E. Scuseria, 
 M. A. Robb, J. R. Cheeseman, G. Scalmani, V. Barone, 
 G. A. Petersson, H. Nakatsuji, X. Li, M. Caricato, A. V. Marenich, 
 J. Bloino, B. G. Janesko, R. Gomperts, B. Mennucci, H. P. Hratchian, 
 J. V. Ortiz, A. F. Izmaylov, J. L. Sonnenberg, D. Williams-Young, 
 F. Ding, F. Lipparini, F. Egidi, J. Goings, B. Peng, A. Petrone, 
 T. Henderson, D. Ranasinghe, V. G. Zakrzewski, J. Gao, N. Rega, 
 G. Zheng, W. Liang, M. Hada, M. Ehara, K. Toyota, R. Fukuda, 
 J. Hasegawa, M. Ishida, T. Nakajima, Y. Honda, O. Kitao, H. Nakai, 
 T. Vreven, K. Throssell, J. A. Montgomery, Jr., J. E. Peralta, 
 F. Ogliaro, M. J. Bearpark, J. J. Heyd, E. N. Brothers, K. N. Kudin, 
 V. N. Staroverov, T. A. Keith, R. Kobayashi, J. Normand, 
 K. Raghavachari, A. P. Rendell, J. C. Burant, S. S. Iyengar, 
 J. Tomasi, M. Cossi, J. M. Millam, M. Klene, C. Adamo, R. Cammi, 
 J. W. Ochterski, R. L. Martin, K. Morokuma, O. Farkas, 
 J. B. Foresman, and D. J. Fox, Gaussian, Inc., Wallingford CT, 2016.
 
 ******************************************
 Gaussian 16:  ES64L-G16RevA.03 25-Dec-2016
                10-Jan-2020 
 ******************************************
 %mem=50GB
 %nprocshared=8
 Will use up to    8 processors via shared memory.
 ------------------------------
 #p opt pop=ChelpG b3lyp/6-311g
 ------------------------------
 1/18=20,19=15,26=3,38=1/1,3;
 2/9=110,12=2,17=6,18=5,40=1/2;
 3/5=4,6=6,11=2,25=1,30=1,71=1,74=-5/1,2,3;
 4//1;
 5/5=2,38=5/2;
 6/7=2,8=2,9=2,10=2,15=8,20=3,28=1/1,2;
 7//1,2,3,16;
 1/18=20,19=15,26=3/3(2);
 2/9=110/2;
 99//99;
 2/9=110/2;
 3/5=4,6=6,11=2,25=1,30=1,71=1,74=-5/1,2,3;
 4/5=5,16=3,69=1/1;
 5/5=2,38=5/2;
 7//1,2,3,16;
 1/18=20,19=15,26=3/3(-5);
 2/9=110/2;
 6/7=2,8=2,9=2,10=2,15=8,19=2,20=3,28=1/1,2;
 99/9=1/99;
 Leave Link    1 at Fri Jan 10 16:32:45 2020, MaxMem=  6710886400 cpu:               0.2 elap:               0.0
 (Enter /apps/gaussian/g16-a03/l101.exe)
 --------------
 OBT_4m_opt.gjf
 --------------
 Symbolic Z-matrix:
 Charge =  0 Multiplicity = 1
 C                     4.672    -0.134     0. 
 C                     5.346     1.075     0. 
 C                     6.773     0.987     0. 
 C                     7.233    -0.295     0. 
 S                     5.899    -1.5       0. 
 O                     4.608     2.255     0. 
 H                     7.427     1.845     0. 
 C                     3.268    -0.38      0. 
 C                     2.591    -1.588     0. 
 C                     1.174    -1.508     0. 
 C                     0.678    -0.224     0. 
 S                     2.046     0.987     0. 
 O                     3.331    -2.765     0. 
 H                     0.53     -2.373     0. 
 C                     5.317     3.522     0. 
 H                     5.935     3.627    -0.895 
 H                     5.935     3.627     0.895 
 H                     4.542     4.281     0. 
 C                     2.626    -4.036     0. 
 H                     3.404    -4.791     0. 
 H                     2.009    -4.142     0.895 
 H                     2.009    -4.142    -0.895 
 C                    -3.268     0.38      0. 
 C                    -2.591     1.588     0. 
 C                    -1.174     1.507     0. 
 C                    -0.678     0.223     0. 
 S                    -2.046    -0.987     0. 
 O                    -3.331     2.765     0. 
 H                    -0.53      2.372     0. 
 C                    -4.672     0.134     0. 
 C                    -5.346    -1.074     0. 
 C                    -6.773    -0.986     0. 
 C                    -7.233     0.295     0. 
 S                    -5.899     1.5       0. 
 O                    -4.609    -2.255     0. 
 H                    -7.427    -1.844     0. 
 C                    -2.625     4.036     0. 
 H                    -2.008     4.142    -0.894 
 H                    -2.009     4.142     0.895 
 H                    -3.404     4.791     0. 
 C                    -5.318    -3.522     0. 
 H                    -4.543    -4.281     0. 
 H                    -5.935    -3.627     0.894 
 H                    -5.935    -3.627    -0.895 
 H                    -8.25      0.642     0. 
 C                     20.67927  -0.55968   0. 
 C                     21.35327   0.64932   0. 
 C                     22.78027   0.56132   0. 
 C                     23.24027  -0.72068   0. 
 S                     21.90627  -1.92568   0. 
 O                     20.61527   1.82932   0. 
 H                     23.43427   1.41932   0. 
 C                     19.27527  -0.80568   0. 
 C                     18.59827  -2.01368   0. 
 C                     17.18127  -1.93368   0. 
 C                     16.68527  -0.64968   0. 
 S                     18.05327   0.56132   0. 
 O                     19.33827  -3.19068   0. 
 H                     16.53727  -2.79868   0. 
 C                     21.32427   3.09632   0. 
 H                     21.94227   3.20132  -0.895 
 H                     21.94227   3.20132   0.895 
 H                     20.54927   3.85532   0. 
 C                     18.63327  -4.46168   0. 
 H                     19.41127  -5.21668   0. 
 H                     18.01627  -4.56768   0.895 
 H                     18.01627  -4.56768  -0.895 
 H                     24.25827  -1.06768   0. 
 C                     12.73927  -0.04568   0. 
 C                     13.41627   1.16232   0. 
 C                     14.83327   1.08132   0. 
 C                     15.32927  -0.20268   0. 
 S                     13.96127  -1.41268   0. 
 O                     12.67627   2.33932   0. 
 H                     15.47727   1.94632   0. 
 C                     11.33527  -0.29168   0. 
 C                     10.66127  -1.49968   0. 
 C                     9.23427  -1.41168   0. 
 C                     8.77427  -0.13068   0. 
 S                     10.10827   1.07432   0. 
 O                     11.39827  -2.68068   0. 
 H                     8.58027  -2.26968   0. 
 C                     13.38227   3.61032   0. 
 H                     13.99927   3.71632  -0.894 
 H                     13.99827   3.71632   0.895 
 H                     12.60327   4.36532   0. 
 C                     10.68927  -3.94768   0. 
 H                     11.46427  -4.70668   0. 
 H                     10.07227  -4.05268   0.894 
 H                     10.07227  -4.05268  -0.895 
 
 ITRead=  0  0  0  0  0  0  0  0  0  0  0  0  0  0  0  0  0  0  0  0
 ITRead=  0  0  0  0  0  0  0  0  0  0  0  0  0  0  0  0  0  0  0  0
 ITRead=  0  0  0  0  0  0  0  0  0  0  0  0  0  0  0  0  0  0  0  0
 ITRead=  0  0  0  0  0  0  0  0  0  0  0  0  0  0  0  0  0  0  0  0
 ITRead=  0  0  0  0  0  0  0  0  0  0
 MicOpt= -1 -1 -1 -1 -1 -1 -1 -1 -1 -1 -1 -1 -1 -1 -1 -1 -1 -1 -1 -1
 MicOpt= -1 -1 -1 -1 -1 -1 -1 -1 -1 -1 -1 -1 -1 -1 -1 -1 -1 -1 -1 -1
 MicOpt= -1 -1 -1 -1 -1 -1 -1 -1 -1 -1 -1 -1 -1 -1 -1 -1 -1 -1 -1 -1
 MicOpt= -1 -1 -1 -1 -1 -1 -1 -1 -1 -1 -1 -1 -1 -1 -1 -1 -1 -1 -1 -1
 MicOpt= -1 -1 -1 -1 -1 -1 -1 -1 -1 -1
 NAtoms=     90 NQM=       90 NQMF=       0 NMMI=      0 NMMIF=      0
                NMic=       0 NMicF=      0.
                    Isotopes and Nuclear Properties:
 (Nuclear quadrupole moments (NQMom) in fm**2, nuclear magnetic moments (NMagM)
  in nuclear magnetons)

  Atom         1           2           3           4           5           6           7           8           9          10
 IAtWgt=          12          12          12          12          32          16           1          12          12          12
 AtmWgt=  12.0000000  12.0000000  12.0000000  12.0000000  31.9720718  15.9949146   1.0078250  12.0000000  12.0000000  12.0000000
 NucSpn=           0           0           0           0           0           0           1           0           0           0
 AtZEff=  -0.0000000  -0.0000000  -0.0000000  -0.0000000  -0.0000000  -0.0000000  -0.0000000  -0.0000000  -0.0000000  -0.0000000
 NQMom=    0.0000000   0.0000000   0.0000000   0.0000000   0.0000000   0.0000000   0.0000000   0.0000000   0.0000000   0.0000000
 NMagM=    0.0000000   0.0000000   0.0000000   0.0000000   0.0000000   0.0000000   2.7928460   0.0000000   0.0000000   0.0000000
 AtZNuc=   6.0000000   6.0000000   6.0000000   6.0000000  16.0000000   8.0000000   1.0000000   6.0000000   6.0000000   6.0000000

  Atom        11          12          13          14          15          16          17          18          19          20
 IAtWgt=          12          32          16           1          12           1           1           1          12           1
 AtmWgt=  12.0000000  31.9720718  15.9949146   1.0078250  12.0000000   1.0078250   1.0078250   1.0078250  12.0000000   1.0078250
 NucSpn=           0           0           0           1           0           1           1           1           0           1
 AtZEff=  -0.0000000  -0.0000000  -0.0000000  -0.0000000  -0.0000000  -0.0000000  -0.0000000  -0.0000000  -0.0000000  -0.0000000
 NQMom=    0.0000000   0.0000000   0.0000000   0.0000000   0.0000000   0.0000000   0.0000000   0.0000000   0.0000000   0.0000000
 NMagM=    0.0000000   0.0000000   0.0000000   2.7928460   0.0000000   2.7928460   2.7928460   2.7928460   0.0000000   2.7928460
 AtZNuc=   6.0000000  16.0000000   8.0000000   1.0000000   6.0000000   1.0000000   1.0000000   1.0000000   6.0000000   1.0000000

  Atom        21          22          23          24          25          26          27          28          29          30
 IAtWgt=           1           1          12          12          12          12          32          16           1          12
 AtmWgt=   1.0078250   1.0078250  12.0000000  12.0000000  12.0000000  12.0000000  31.9720718  15.9949146   1.0078250  12.0000000
 NucSpn=           1           1           0           0           0           0           0           0           1           0
 AtZEff=  -0.0000000  -0.0000000  -0.0000000  -0.0000000  -0.0000000  -0.0000000  -0.0000000  -0.0000000  -0.0000000  -0.0000000
 NQMom=    0.0000000   0.0000000   0.0000000   0.0000000   0.0000000   0.0000000   0.0000000   0.0000000   0.0000000   0.0000000
 NMagM=    2.7928460   2.7928460   0.0000000   0.0000000   0.0000000   0.0000000   0.0000000   0.0000000   2.7928460   0.0000000
 AtZNuc=   1.0000000   1.0000000   6.0000000   6.0000000   6.0000000   6.0000000  16.0000000   8.0000000   1.0000000   6.0000000

  Atom        31          32          33          34          35          36          37          38          39          40
 IAtWgt=          12          12          12          32          16           1          12           1           1           1
 AtmWgt=  12.0000000  12.0000000  12.0000000  31.9720718  15.9949146   1.0078250  12.0000000   1.0078250   1.0078250   1.0078250
 NucSpn=           0           0           0           0           0           1           0           1           1           1
 AtZEff=  -0.0000000  -0.0000000  -0.0000000  -0.0000000  -0.0000000  -0.0000000  -0.0000000  -0.0000000  -0.0000000  -0.0000000
 NQMom=    0.0000000   0.0000000   0.0000000   0.0000000   0.0000000   0.0000000   0.0000000   0.0000000   0.0000000   0.0000000
 NMagM=    0.0000000   0.0000000   0.0000000   0.0000000   0.0000000   2.7928460   0.0000000   2.7928460   2.7928460   2.7928460
 AtZNuc=   6.0000000   6.0000000   6.0000000  16.0000000   8.0000000   1.0000000   6.0000000   1.0000000   1.0000000   1.0000000

  Atom        41          42          43          44          45          46          47          48          49          50
 IAtWgt=          12           1           1           1           1          12          12          12          12          32
 AtmWgt=  12.0000000   1.0078250   1.0078250   1.0078250   1.0078250  12.0000000  12.0000000  12.0000000  12.0000000  31.9720718
 NucSpn=           0           1           1           1           1           0           0           0           0           0
 AtZEff=  -0.0000000  -0.0000000  -0.0000000  -0.0000000  -0.0000000  -0.0000000  -0.0000000  -0.0000000  -0.0000000  -0.0000000
 NQMom=    0.0000000   0.0000000   0.0000000   0.0000000   0.0000000   0.0000000   0.0000000   0.0000000   0.0000000   0.0000000
 NMagM=    0.0000000   2.7928460   2.7928460   2.7928460   2.7928460   0.0000000   0.0000000   0.0000000   0.0000000   0.0000000
 AtZNuc=   6.0000000   1.0000000   1.0000000   1.0000000   1.0000000   6.0000000   6.0000000   6.0000000   6.0000000  16.0000000

  Atom        51          52          53          54          55          56          57          58          59          60
 IAtWgt=          16           1          12          12          12          12          32          16           1          12
 AtmWgt=  15.9949146   1.0078250  12.0000000  12.0000000  12.0000000  12.0000000  31.9720718  15.9949146   1.0078250  12.0000000
 NucSpn=           0           1           0           0           0           0           0           0           1           0
 AtZEff=  -0.0000000  -0.0000000  -0.0000000  -0.0000000  -0.0000000  -0.0000000  -0.0000000  -0.0000000  -0.0000000  -0.0000000
 NQMom=    0.0000000   0.0000000   0.0000000   0.0000000   0.0000000   0.0000000   0.0000000   0.0000000   0.0000000   0.0000000
 NMagM=    0.0000000   2.7928460   0.0000000   0.0000000   0.0000000   0.0000000   0.0000000   0.0000000   2.7928460   0.0000000
 AtZNuc=   8.0000000   1.0000000   6.0000000   6.0000000   6.0000000   6.0000000  16.0000000   8.0000000   1.0000000   6.0000000

  Atom        61          62          63          64          65          66          67          68          69          70
 IAtWgt=           1           1           1          12           1           1           1           1          12          12
 AtmWgt=   1.0078250   1.0078250   1.0078250  12.0000000   1.0078250   1.0078250   1.0078250   1.0078250  12.0000000  12.0000000
 NucSpn=           1           1           1           0           1           1           1           1           0           0
 AtZEff=  -0.0000000  -0.0000000  -0.0000000  -0.0000000  -0.0000000  -0.0000000  -0.0000000  -0.0000000  -0.0000000  -0.0000000
 NQMom=    0.0000000   0.0000000   0.0000000   0.0000000   0.0000000   0.0000000   0.0000000   0.0000000   0.0000000   0.0000000
 NMagM=    2.7928460   2.7928460   2.7928460   0.0000000   2.7928460   2.7928460   2.7928460   2.7928460   0.0000000   0.0000000
 AtZNuc=   1.0000000   1.0000000   1.0000000   6.0000000   1.0000000   1.0000000   1.0000000   1.0000000   6.0000000   6.0000000

  Atom        71          72          73          74          75          76          77          78          79          80
 IAtWgt=          12          12          32          16           1          12          12          12          12          32
 AtmWgt=  12.0000000  12.0000000  31.9720718  15.9949146   1.0078250  12.0000000  12.0000000  12.0000000  12.0000000  31.9720718
 NucSpn=           0           0           0           0           1           0           0           0           0           0
 AtZEff=  -0.0000000  -0.0000000  -0.0000000  -0.0000000  -0.0000000  -0.0000000  -0.0000000  -0.0000000  -0.0000000  -0.0000000
 NQMom=    0.0000000   0.0000000   0.0000000   0.0000000   0.0000000   0.0000000   0.0000000   0.0000000   0.0000000   0.0000000
 NMagM=    0.0000000   0.0000000   0.0000000   0.0000000   2.7928460   0.0000000   0.0000000   0.0000000   0.0000000   0.0000000
 AtZNuc=   6.0000000   6.0000000  16.0000000   8.0000000   1.0000000   6.0000000   6.0000000   6.0000000   6.0000000  16.0000000

  Atom        81          82          83          84          85          86          87          88          89          90
 IAtWgt=          16           1          12           1           1           1          12           1           1           1
 AtmWgt=  15.9949146   1.0078250  12.0000000   1.0078250   1.0078250   1.0078250  12.0000000   1.0078250   1.0078250   1.0078250
 NucSpn=           0           1           0           1           1           1           0           1           1           1
 AtZEff=  -0.0000000  -0.0000000  -0.0000000  -0.0000000  -0.0000000  -0.0000000  -0.0000000  -0.0000000  -0.0000000  -0.0000000
 NQMom=    0.0000000   0.0000000   0.0000000   0.0000000   0.0000000   0.0000000   0.0000000   0.0000000   0.0000000   0.0000000
 NMagM=    0.0000000   2.7928460   0.0000000   2.7928460   2.7928460   2.7928460   0.0000000   2.7928460   2.7928460   2.7928460
 AtZNuc=   8.0000000   1.0000000   6.0000000   1.0000000   1.0000000   1.0000000   6.0000000   1.0000000   1.0000000   1.0000000
 Leave Link  101 at Fri Jan 10 16:32:46 2020, MaxMem=  6710886400 cpu:               3.8 elap:               0.5
 (Enter /apps/gaussian/g16-a03/l103.exe)

 GradGradGradGradGradGradGradGradGradGradGradGradGradGradGradGradGradGrad
 Berny optimization.
 Initialization pass.
                           ----------------------------
                           !    Initial Parameters    !
                           ! (Angstroms and Degrees)  !
 --------------------------                            --------------------------
 ! Name  Definition              Value          Derivative Info.                !
 --------------------------------------------------------------------------------
 ! R1    R(1,2)                  1.3842         estimate D2E/DX2                !
 ! R2    R(1,5)                  1.8362         estimate D2E/DX2                !
 ! R3    R(1,8)                  1.4254         estimate D2E/DX2                !
 ! R4    R(2,3)                  1.4297         estimate D2E/DX2                !
 ! R5    R(2,6)                  1.3918         estimate D2E/DX2                !
 ! R6    R(3,4)                  1.362          estimate D2E/DX2                !
 ! R7    R(3,7)                  1.0788         estimate D2E/DX2                !
 ! R8    R(4,5)                  1.7977         estimate D2E/DX2                !
 ! R9    R(4,79)                 1.55           estimate D2E/DX2                !
 ! R10   R(6,15)                 1.4519         estimate D2E/DX2                !
 ! R11   R(8,9)                  1.3848         estimate D2E/DX2                !
 ! R12   R(8,12)                 1.8336         estimate D2E/DX2                !
 ! R13   R(9,10)                 1.4193         estimate D2E/DX2                !
 ! R14   R(9,13)                 1.3903         estimate D2E/DX2                !
 ! R15   R(10,11)                1.3765         estimate D2E/DX2                !
 ! R16   R(10,14)                1.0784         estimate D2E/DX2                !
 ! R17   R(11,12)                1.827          estimate D2E/DX2                !
 ! R18   R(11,26)                1.4278         estimate D2E/DX2                !
 ! R19   R(13,19)                1.4534         estimate D2E/DX2                !
 ! R20   R(15,16)                1.0927         estimate D2E/DX2                !
 ! R21   R(15,17)                1.0927         estimate D2E/DX2                !
 ! R22   R(15,18)                1.0848         estimate D2E/DX2                !
 ! R23   R(19,20)                1.0841         estimate D2E/DX2                !
 ! R24   R(19,21)                1.0922         estimate D2E/DX2                !
 ! R25   R(19,22)                1.0922         estimate D2E/DX2                !
 ! R26   R(23,24)                1.3848         estimate D2E/DX2                !
 ! R27   R(23,27)                1.8336         estimate D2E/DX2                !
 ! R28   R(23,30)                1.4254         estimate D2E/DX2                !
 ! R29   R(24,25)                1.4193         estimate D2E/DX2                !
 ! R30   R(24,28)                1.3903         estimate D2E/DX2                !
 ! R31   R(25,26)                1.3765         estimate D2E/DX2                !
 ! R32   R(25,29)                1.0784         estimate D2E/DX2                !
 ! R33   R(26,27)                1.8263         estimate D2E/DX2                !
 ! R34   R(28,37)                1.4539         estimate D2E/DX2                !
 ! R35   R(30,31)                1.3833         estimate D2E/DX2                !
 ! R36   R(30,34)                1.8362         estimate D2E/DX2                !
 ! R37   R(31,32)                1.4297         estimate D2E/DX2                !
 ! R38   R(31,35)                1.3921         estimate D2E/DX2                !
 ! R39   R(32,33)                1.3611         estimate D2E/DX2                !
 ! R40   R(32,36)                1.0788         estimate D2E/DX2                !
 ! R41   R(33,34)                1.7977         estimate D2E/DX2                !
 ! R42   R(33,45)                1.0746         estimate D2E/DX2                !
 ! R43   R(35,41)                1.4519         estimate D2E/DX2                !
 ! R44   R(37,38)                1.0914         estimate D2E/DX2                !
 ! R45   R(37,39)                1.0917         estimate D2E/DX2                !
 ! R46   R(37,40)                1.0848         estimate D2E/DX2                !
 ! R47   R(41,42)                1.0848         estimate D2E/DX2                !
 ! R48   R(41,43)                1.0913         estimate D2E/DX2                !
 ! R49   R(41,44)                1.0921         estimate D2E/DX2                !
 ! R50   R(46,47)                1.3842         estimate D2E/DX2                !
 ! R51   R(46,50)                1.8362         estimate D2E/DX2                !
 ! R52   R(46,53)                1.4254         estimate D2E/DX2                !
 ! R53   R(47,48)                1.4297         estimate D2E/DX2                !
 ! R54   R(47,51)                1.3918         estimate D2E/DX2                !
 ! R55   R(48,49)                1.362          estimate D2E/DX2                !
 ! R56   R(48,52)                1.0788         estimate D2E/DX2                !
 ! R57   R(49,50)                1.7977         estimate D2E/DX2                !
 ! R58   R(49,68)                1.0755         estimate D2E/DX2                !
 ! R59   R(51,60)                1.4519         estimate D2E/DX2                !
 ! R60   R(53,54)                1.3848         estimate D2E/DX2                !
 ! R61   R(53,57)                1.8336         estimate D2E/DX2                !
 ! R62   R(54,55)                1.4193         estimate D2E/DX2                !
 ! R63   R(54,58)                1.3903         estimate D2E/DX2                !
 ! R64   R(55,56)                1.3765         estimate D2E/DX2                !
 ! R65   R(55,59)                1.0784         estimate D2E/DX2                !
 ! R66   R(56,57)                1.827          estimate D2E/DX2                !
 ! R67   R(56,72)                1.4278         estimate D2E/DX2                !
 ! R68   R(58,64)                1.4534         estimate D2E/DX2                !
 ! R69   R(60,61)                1.0927         estimate D2E/DX2                !
 ! R70   R(60,62)                1.0927         estimate D2E/DX2                !
 ! R71   R(60,63)                1.0848         estimate D2E/DX2                !
 ! R72   R(64,65)                1.0841         estimate D2E/DX2                !
 ! R73   R(64,66)                1.0922         estimate D2E/DX2                !
 ! R74   R(64,67)                1.0922         estimate D2E/DX2                !
 ! R75   R(69,70)                1.3848         estimate D2E/DX2                !
 ! R76   R(69,73)                1.8336         estimate D2E/DX2                !
 ! R77   R(69,76)                1.4254         estimate D2E/DX2                !
 ! R78   R(70,71)                1.4193         estimate D2E/DX2                !
 ! R79   R(70,74)                1.3903         estimate D2E/DX2                !
 ! R80   R(71,72)                1.3765         estimate D2E/DX2                !
 ! R81   R(71,75)                1.0784         estimate D2E/DX2                !
 ! R82   R(72,73)                1.8263         estimate D2E/DX2                !
 ! R83   R(74,83)                1.4539         estimate D2E/DX2                !
 ! R84   R(76,77)                1.3833         estimate D2E/DX2                !
 ! R85   R(76,80)                1.8362         estimate D2E/DX2                !
 ! R86   R(77,78)                1.4297         estimate D2E/DX2                !
 ! R87   R(77,81)                1.3921         estimate D2E/DX2                !
 ! R88   R(78,79)                1.3611         estimate D2E/DX2                !
 ! R89   R(78,82)                1.0788         estimate D2E/DX2                !
 ! R90   R(79,80)                1.7977         estimate D2E/DX2                !
 ! R91   R(81,87)                1.4519         estimate D2E/DX2                !
 ! R92   R(83,84)                1.0914         estimate D2E/DX2                !
 ! R93   R(83,85)                1.0917         estimate D2E/DX2                !
 ! R94   R(83,86)                1.0848         estimate D2E/DX2                !
 ! R95   R(87,88)                1.0848         estimate D2E/DX2                !
 ! R96   R(87,89)                1.0913         estimate D2E/DX2                !
 ! R97   R(87,90)                1.0921         estimate D2E/DX2                !
 ! A1    A(2,1,5)              108.9294         estimate D2E/DX2                !
 ! A2    A(2,1,8)              129.0772         estimate D2E/DX2                !
 ! A3    A(5,1,8)              121.9934         estimate D2E/DX2                !
 ! A4    A(1,2,3)              115.6102         estimate D2E/DX2                !
 ! A5    A(1,2,6)              118.8381         estimate D2E/DX2                !
 ! A6    A(3,2,6)              125.5517         estimate D2E/DX2                !
 ! A7    A(2,3,4)              113.2676         estimate D2E/DX2                !
 ! A8    A(2,3,7)              123.7872         estimate D2E/DX2                !
 ! A9    A(4,3,7)              122.9453         estimate D2E/DX2                !
 ! A10   A(3,4,5)              112.3527         estimate D2E/DX2                !
 ! A11   A(3,4,79)             103.6532         estimate D2E/DX2                !
 ! A12   A(5,4,79)             143.9941         estimate D2E/DX2                !
 ! A13   A(1,5,4)               89.8401         estimate D2E/DX2                !
 ! A14   A(2,6,15)             118.7462         estimate D2E/DX2                !
 ! A15   A(1,8,9)              129.2057         estimate D2E/DX2                !
 ! A16   A(1,8,12)             121.8563         estimate D2E/DX2                !
 ! A17   A(9,8,12)             108.938          estimate D2E/DX2                !
 ! A18   A(8,9,10)             116.0363         estimate D2E/DX2                !
 ! A19   A(8,9,13)             118.5741         estimate D2E/DX2                !
 ! A20   A(10,9,13)            125.3896         estimate D2E/DX2                !
 ! A21   A(9,10,11)            114.3525         estimate D2E/DX2                !
 ! A22   A(9,10,14)            123.4367         estimate D2E/DX2                !
 ! A23   A(11,10,14)           122.2108         estimate D2E/DX2                !
 ! A24   A(10,11,12)           110.3952         estimate D2E/DX2                !
 ! A25   A(10,11,26)           129.3658         estimate D2E/DX2                !
 ! A26   A(12,11,26)           120.2391         estimate D2E/DX2                !
 ! A27   A(8,12,11)             90.2781         estimate D2E/DX2                !
 ! A28   A(9,13,19)            118.8254         estimate D2E/DX2                !
 ! A29   A(6,15,16)            111.1029         estimate D2E/DX2                !
 ! A30   A(6,15,17)            111.1029         estimate D2E/DX2                !
 ! A31   A(6,15,18)            105.1715         estimate D2E/DX2                !
 ! A32   A(16,15,17)           109.9853         estimate D2E/DX2                !
 ! A33   A(16,15,18)           109.6842         estimate D2E/DX2                !
 ! A34   A(17,15,18)           109.6842         estimate D2E/DX2                !
 ! A35   A(13,19,20)           105.1241         estimate D2E/DX2                !
 ! A36   A(13,19,21)           111.0314         estimate D2E/DX2                !
 ! A37   A(13,19,22)           111.0314         estimate D2E/DX2                !
 ! A38   A(20,19,21)           109.7433         estimate D2E/DX2                !
 ! A39   A(20,19,22)           109.7433         estimate D2E/DX2                !
 ! A40   A(21,19,22)           110.0556         estimate D2E/DX2                !
 ! A41   A(24,23,27)           108.938          estimate D2E/DX2                !
 ! A42   A(24,23,30)           129.2057         estimate D2E/DX2                !
 ! A43   A(27,23,30)           121.8563         estimate D2E/DX2                !
 ! A44   A(23,24,25)           115.996          estimate D2E/DX2                !
 ! A45   A(23,24,28)           118.5741         estimate D2E/DX2                !
 ! A46   A(25,24,28)           125.4299         estimate D2E/DX2                !
 ! A47   A(24,25,26)           114.3928         estimate D2E/DX2                !
 ! A48   A(24,25,29)           123.3964         estimate D2E/DX2                !
 ! A49   A(26,25,29)           122.2108         estimate D2E/DX2                !
 ! A50   A(11,26,25)           129.3658         estimate D2E/DX2                !
 ! A51   A(11,26,27)           120.2625         estimate D2E/DX2                !
 ! A52   A(25,26,27)           110.3717         estimate D2E/DX2                !
 ! A53   A(23,27,26)            90.3016         estimate D2E/DX2                !
 ! A54   A(24,28,37)           118.7909         estimate D2E/DX2                !
 ! A55   A(23,30,31)           129.0973         estimate D2E/DX2                !
 ! A56   A(23,30,34)           121.9934         estimate D2E/DX2                !
 ! A57   A(31,30,34)           108.9093         estimate D2E/DX2                !
 ! A58   A(30,31,32)           115.6304         estimate D2E/DX2                !
 ! A59   A(30,31,35)           118.8747         estimate D2E/DX2                !
 ! A60   A(32,31,35)           125.495          estimate D2E/DX2                !
 ! A61   A(31,32,33)           113.2818         estimate D2E/DX2                !
 ! A62   A(31,32,36)           123.7872         estimate D2E/DX2                !
 ! A63   A(33,32,36)           122.931          estimate D2E/DX2                !
 ! A64   A(32,33,34)           112.3385         estimate D2E/DX2                !
 ! A65   A(32,33,45)           128.5926         estimate D2E/DX2                !
 ! A66   A(34,33,45)           119.0689         estimate D2E/DX2                !
 ! A67   A(30,34,33)            89.8401         estimate D2E/DX2                !
 ! A68   A(31,35,41)           118.803          estimate D2E/DX2                !
 ! A69   A(28,37,38)           111.0644         estimate D2E/DX2                !
 ! A70   A(28,37,39)           111.032          estimate D2E/DX2                !
 ! A71   A(28,37,40)           105.0529         estimate D2E/DX2                !
 ! A72   A(38,37,39)           110.0679         estimate D2E/DX2                !
 ! A73   A(38,37,40)           109.7769         estimate D2E/DX2                !
 ! A74   A(39,37,40)           109.732          estimate D2E/DX2                !
 ! A75   A(35,41,42)           105.1715         estimate D2E/DX2                !
 ! A76   A(35,41,43)           111.1035         estimate D2E/DX2                !
 ! A77   A(35,41,44)           111.0869         estimate D2E/DX2                !
 ! A78   A(42,41,43)           109.6704         estimate D2E/DX2                !
 ! A79   A(42,41,44)           109.655          estimate D2E/DX2                !
 ! A80   A(43,41,44)           110.04           estimate D2E/DX2                !
 ! A81   A(47,46,50)           108.9294         estimate D2E/DX2                !
 ! A82   A(47,46,53)           129.0772         estimate D2E/DX2                !
 ! A83   A(50,46,53)           121.9934         estimate D2E/DX2                !
 ! A84   A(46,47,48)           115.6102         estimate D2E/DX2                !
 ! A85   A(46,47,51)           118.8381         estimate D2E/DX2                !
 ! A86   A(48,47,51)           125.5517         estimate D2E/DX2                !
 ! A87   A(47,48,49)           113.2676         estimate D2E/DX2                !
 ! A88   A(47,48,52)           123.7872         estimate D2E/DX2                !
 ! A89   A(49,48,52)           122.9453         estimate D2E/DX2                !
 ! A90   A(48,49,50)           112.3527         estimate D2E/DX2                !
 ! A91   A(48,49,68)           128.5611         estimate D2E/DX2                !
 ! A92   A(50,49,68)           119.0861         estimate D2E/DX2                !
 ! A93   A(46,50,49)            89.8401         estimate D2E/DX2                !
 ! A94   A(47,51,60)           118.7462         estimate D2E/DX2                !
 ! A95   A(46,53,54)           129.2057         estimate D2E/DX2                !
 ! A96   A(46,53,57)           121.8563         estimate D2E/DX2                !
 ! A97   A(54,53,57)           108.938          estimate D2E/DX2                !
 ! A98   A(53,54,55)           116.0363         estimate D2E/DX2                !
 ! A99   A(53,54,58)           118.5741         estimate D2E/DX2                !
 ! A100  A(55,54,58)           125.3896         estimate D2E/DX2                !
 ! A101  A(54,55,56)           114.3525         estimate D2E/DX2                !
 ! A102  A(54,55,59)           123.4367         estimate D2E/DX2                !
 ! A103  A(56,55,59)           122.2108         estimate D2E/DX2                !
 ! A104  A(55,56,57)           110.3952         estimate D2E/DX2                !
 ! A105  A(55,56,72)           129.3658         estimate D2E/DX2                !
 ! A106  A(57,56,72)           120.2391         estimate D2E/DX2                !
 ! A107  A(53,57,56)            90.2781         estimate D2E/DX2                !
 ! A108  A(54,58,64)           118.8254         estimate D2E/DX2                !
 ! A109  A(51,60,61)           111.1029         estimate D2E/DX2                !
 ! A110  A(51,60,62)           111.1029         estimate D2E/DX2                !
 ! A111  A(51,60,63)           105.1715         estimate D2E/DX2                !
 ! A112  A(61,60,62)           109.9853         estimate D2E/DX2                !
 ! A113  A(61,60,63)           109.6842         estimate D2E/DX2                !
 ! A114  A(62,60,63)           109.6842         estimate D2E/DX2                !
 ! A115  A(58,64,65)           105.1241         estimate D2E/DX2                !
 ! A116  A(58,64,66)           111.0314         estimate D2E/DX2                !
 ! A117  A(58,64,67)           111.0314         estimate D2E/DX2                !
 ! A118  A(65,64,66)           109.7433         estimate D2E/DX2                !
 ! A119  A(65,64,67)           109.7433         estimate D2E/DX2                !
 ! A120  A(66,64,67)           110.0556         estimate D2E/DX2                !
 ! A121  A(70,69,73)           108.938          estimate D2E/DX2                !
 ! A122  A(70,69,76)           129.2057         estimate D2E/DX2                !
 ! A123  A(73,69,76)           121.8563         estimate D2E/DX2                !
 ! A124  A(69,70,71)           115.996          estimate D2E/DX2                !
 ! A125  A(69,70,74)           118.5741         estimate D2E/DX2                !
 ! A126  A(71,70,74)           125.4299         estimate D2E/DX2                !
 ! A127  A(70,71,72)           114.3928         estimate D2E/DX2                !
 ! A128  A(70,71,75)           123.3964         estimate D2E/DX2                !
 ! A129  A(72,71,75)           122.2108         estimate D2E/DX2                !
 ! A130  A(56,72,71)           129.3658         estimate D2E/DX2                !
 ! A131  A(56,72,73)           120.2625         estimate D2E/DX2                !
 ! A132  A(71,72,73)           110.3717         estimate D2E/DX2                !
 ! A133  A(69,73,72)            90.3016         estimate D2E/DX2                !
 ! A134  A(70,74,83)           118.7909         estimate D2E/DX2                !
 ! A135  A(69,76,77)           129.0973         estimate D2E/DX2                !
 ! A136  A(69,76,80)           121.9934         estimate D2E/DX2                !
 ! A137  A(77,76,80)           108.9093         estimate D2E/DX2                !
 ! A138  A(76,77,78)           115.6304         estimate D2E/DX2                !
 ! A139  A(76,77,81)           118.8747         estimate D2E/DX2                !
 ! A140  A(78,77,81)           125.495          estimate D2E/DX2                !
 ! A141  A(77,78,79)           113.2818         estimate D2E/DX2                !
 ! A142  A(77,78,82)           123.7872         estimate D2E/DX2                !
 ! A143  A(79,78,82)           122.931          estimate D2E/DX2                !
 ! A144  A(4,79,78)            103.6674         estimate D2E/DX2                !
 ! A145  A(4,79,80)            143.9941         estimate D2E/DX2                !
 ! A146  A(78,79,80)           112.3385         estimate D2E/DX2                !
 ! A147  A(76,80,79)            89.8401         estimate D2E/DX2                !
 ! A148  A(77,81,87)           118.803          estimate D2E/DX2                !
 ! A149  A(74,83,84)           111.0644         estimate D2E/DX2                !
 ! A150  A(74,83,85)           111.032          estimate D2E/DX2                !
 ! A151  A(74,83,86)           105.0529         estimate D2E/DX2                !
 ! A152  A(84,83,85)           110.0679         estimate D2E/DX2                !
 ! A153  A(84,83,86)           109.7769         estimate D2E/DX2                !
 ! A154  A(85,83,86)           109.732          estimate D2E/DX2                !
 ! A155  A(81,87,88)           105.1715         estimate D2E/DX2                !
 ! A156  A(81,87,89)           111.1035         estimate D2E/DX2                !
 ! A157  A(81,87,90)           111.0869         estimate D2E/DX2                !
 ! A158  A(88,87,89)           109.6704         estimate D2E/DX2                !
 ! A159  A(88,87,90)           109.655          estimate D2E/DX2                !
 ! A160  A(89,87,90)           110.04           estimate D2E/DX2                !
 ! D1    D(5,1,2,3)              0.0            estimate D2E/DX2                !
 ! D2    D(5,1,2,6)            180.0            estimate D2E/DX2                !
 ! D3    D(8,1,2,3)            180.0            estimate D2E/DX2                !
 ! D4    D(8,1,2,6)              0.0            estimate D2E/DX2                !
 ! D5    D(2,1,5,4)              0.0            estimate D2E/DX2                !
 ! D6    D(8,1,5,4)            180.0            estimate D2E/DX2                !
 ! D7    D(2,1,8,9)            180.0            estimate D2E/DX2                !
 ! D8    D(2,1,8,12)             0.0            estimate D2E/DX2                !
 ! D9    D(5,1,8,9)              0.0            estimate D2E/DX2                !
 ! D10   D(5,1,8,12)           180.0            estimate D2E/DX2                !
 ! D11   D(1,2,3,4)              0.0            estimate D2E/DX2                !
 ! D12   D(1,2,3,7)            180.0            estimate D2E/DX2                !
 ! D13   D(6,2,3,4)            180.0            estimate D2E/DX2                !
 ! D14   D(6,2,3,7)              0.0            estimate D2E/DX2                !
 ! D15   D(1,2,6,15)           180.0            estimate D2E/DX2                !
 ! D16   D(3,2,6,15)             0.0            estimate D2E/DX2                !
 ! D17   D(2,3,4,5)              0.0            estimate D2E/DX2                !
 ! D18   D(2,3,4,79)           180.0            estimate D2E/DX2                !
 ! D19   D(7,3,4,5)            180.0            estimate D2E/DX2                !
 ! D20   D(7,3,4,79)             0.0            estimate D2E/DX2                !
 ! D21   D(3,4,5,1)              0.0            estimate D2E/DX2                !
 ! D22   D(79,4,5,1)           180.0            estimate D2E/DX2                !
 ! D23   D(3,4,79,78)          180.0            estimate D2E/DX2                !
 ! D24   D(3,4,79,80)            0.0            estimate D2E/DX2                !
 ! D25   D(5,4,79,78)            0.0            estimate D2E/DX2                !
 ! D26   D(5,4,79,80)          180.0            estimate D2E/DX2                !
 ! D27   D(2,6,15,16)           61.3971         estimate D2E/DX2                !
 ! D28   D(2,6,15,17)          -61.3971         estimate D2E/DX2                !
 ! D29   D(2,6,15,18)          180.0            estimate D2E/DX2                !
 ! D30   D(1,8,9,10)           180.0            estimate D2E/DX2                !
 ! D31   D(1,8,9,13)             0.0            estimate D2E/DX2                !
 ! D32   D(12,8,9,10)            0.0            estimate D2E/DX2                !
 ! D33   D(12,8,9,13)          180.0            estimate D2E/DX2                !
 ! D34   D(1,8,12,11)          180.0            estimate D2E/DX2                !
 ! D35   D(9,8,12,11)            0.0            estimate D2E/DX2                !
 ! D36   D(8,9,10,11)            0.0            estimate D2E/DX2                !
 ! D37   D(8,9,10,14)          180.0            estimate D2E/DX2                !
 ! D38   D(13,9,10,11)         180.0            estimate D2E/DX2                !
 ! D39   D(13,9,10,14)           0.0            estimate D2E/DX2                !
 ! D40   D(8,9,13,19)          180.0            estimate D2E/DX2                !
 ! D41   D(10,9,13,19)           0.0            estimate D2E/DX2                !
 ! D42   D(9,10,11,12)           0.0            estimate D2E/DX2                !
 ! D43   D(9,10,11,26)         180.0            estimate D2E/DX2                !
 ! D44   D(14,10,11,12)        180.0            estimate D2E/DX2                !
 ! D45   D(14,10,11,26)          0.0            estimate D2E/DX2                !
 ! D46   D(10,11,12,8)           0.0            estimate D2E/DX2                !
 ! D47   D(26,11,12,8)         180.0            estimate D2E/DX2                !
 ! D48   D(10,11,26,25)        180.0            estimate D2E/DX2                !
 ! D49   D(10,11,26,27)          0.0            estimate D2E/DX2                !
 ! D50   D(12,11,26,25)          0.0            estimate D2E/DX2                !
 ! D51   D(12,11,26,27)        180.0            estimate D2E/DX2                !
 ! D52   D(9,13,19,20)         180.0            estimate D2E/DX2                !
 ! D53   D(9,13,19,21)         -61.3917         estimate D2E/DX2                !
 ! D54   D(9,13,19,22)          61.3917         estimate D2E/DX2                !
 ! D55   D(27,23,24,25)          0.0            estimate D2E/DX2                !
 ! D56   D(27,23,24,28)        180.0            estimate D2E/DX2                !
 ! D57   D(30,23,24,25)        180.0            estimate D2E/DX2                !
 ! D58   D(30,23,24,28)          0.0            estimate D2E/DX2                !
 ! D59   D(24,23,27,26)          0.0            estimate D2E/DX2                !
 ! D60   D(30,23,27,26)        180.0            estimate D2E/DX2                !
 ! D61   D(24,23,30,31)        180.0            estimate D2E/DX2                !
 ! D62   D(24,23,30,34)          0.0            estimate D2E/DX2                !
 ! D63   D(27,23,30,31)          0.0            estimate D2E/DX2                !
 ! D64   D(27,23,30,34)        180.0            estimate D2E/DX2                !
 ! D65   D(23,24,25,26)          0.0            estimate D2E/DX2                !
 ! D66   D(23,24,25,29)        180.0            estimate D2E/DX2                !
 ! D67   D(28,24,25,26)        180.0            estimate D2E/DX2                !
 ! D68   D(28,24,25,29)          0.0            estimate D2E/DX2                !
 ! D69   D(23,24,28,37)        180.0            estimate D2E/DX2                !
 ! D70   D(25,24,28,37)          0.0            estimate D2E/DX2                !
 ! D71   D(24,25,26,11)        180.0            estimate D2E/DX2                !
 ! D72   D(24,25,26,27)          0.0            estimate D2E/DX2                !
 ! D73   D(29,25,26,11)          0.0            estimate D2E/DX2                !
 ! D74   D(29,25,26,27)        180.0            estimate D2E/DX2                !
 ! D75   D(11,26,27,23)        180.0            estimate D2E/DX2                !
 ! D76   D(25,26,27,23)          0.0            estimate D2E/DX2                !
 ! D77   D(24,28,37,38)         61.3764         estimate D2E/DX2                !
 ! D78   D(24,28,37,39)        -61.4465         estimate D2E/DX2                !
 ! D79   D(24,28,37,40)        180.0            estimate D2E/DX2                !
 ! D80   D(23,30,31,32)        180.0            estimate D2E/DX2                !
 ! D81   D(23,30,31,35)          0.0            estimate D2E/DX2                !
 ! D82   D(34,30,31,32)          0.0            estimate D2E/DX2                !
 ! D83   D(34,30,31,35)        180.0            estimate D2E/DX2                !
 ! D84   D(23,30,34,33)        180.0            estimate D2E/DX2                !
 ! D85   D(31,30,34,33)          0.0            estimate D2E/DX2                !
 ! D86   D(30,31,32,33)          0.0            estimate D2E/DX2                !
 ! D87   D(30,31,32,36)        180.0            estimate D2E/DX2                !
 ! D88   D(35,31,32,33)        180.0            estimate D2E/DX2                !
 ! D89   D(35,31,32,36)          0.0            estimate D2E/DX2                !
 ! D90   D(30,31,35,41)        180.0            estimate D2E/DX2                !
 ! D91   D(32,31,35,41)          0.0            estimate D2E/DX2                !
 ! D92   D(31,32,33,34)          0.0            estimate D2E/DX2                !
 ! D93   D(31,32,33,45)        180.0            estimate D2E/DX2                !
 ! D94   D(36,32,33,34)        180.0            estimate D2E/DX2                !
 ! D95   D(36,32,33,45)          0.0            estimate D2E/DX2                !
 ! D96   D(32,33,34,30)          0.0            estimate D2E/DX2                !
 ! D97   D(45,33,34,30)        180.0            estimate D2E/DX2                !
 ! D98   D(31,35,41,42)        180.0            estimate D2E/DX2                !
 ! D99   D(31,35,41,43)        -61.4133         estimate D2E/DX2                !
 ! D100  D(31,35,41,44)         61.4402         estimate D2E/DX2                !
 ! D101  D(50,46,47,48)          0.0            estimate D2E/DX2                !
 ! D102  D(50,46,47,51)        180.0            estimate D2E/DX2                !
 ! D103  D(53,46,47,48)        180.0            estimate D2E/DX2                !
 ! D104  D(53,46,47,51)          0.0            estimate D2E/DX2                !
 ! D105  D(47,46,50,49)          0.0            estimate D2E/DX2                !
 ! D106  D(53,46,50,49)        180.0            estimate D2E/DX2                !
 ! D107  D(47,46,53,54)        180.0            estimate D2E/DX2                !
 ! D108  D(47,46,53,57)          0.0            estimate D2E/DX2                !
 ! D109  D(50,46,53,54)          0.0            estimate D2E/DX2                !
 ! D110  D(50,46,53,57)        180.0            estimate D2E/DX2                !
 ! D111  D(46,47,48,49)          0.0            estimate D2E/DX2                !
 ! D112  D(46,47,48,52)        180.0            estimate D2E/DX2                !
 ! D113  D(51,47,48,49)        180.0            estimate D2E/DX2                !
 ! D114  D(51,47,48,52)          0.0            estimate D2E/DX2                !
 ! D115  D(46,47,51,60)        180.0            estimate D2E/DX2                !
 ! D116  D(48,47,51,60)          0.0            estimate D2E/DX2                !
 ! D117  D(47,48,49,50)          0.0            estimate D2E/DX2                !
 ! D118  D(47,48,49,68)        180.0            estimate D2E/DX2                !
 ! D119  D(52,48,49,50)        180.0            estimate D2E/DX2                !
 ! D120  D(52,48,49,68)          0.0            estimate D2E/DX2                !
 ! D121  D(48,49,50,46)          0.0            estimate D2E/DX2                !
 ! D122  D(68,49,50,46)        180.0            estimate D2E/DX2                !
 ! D123  D(47,51,60,61)         61.3971         estimate D2E/DX2                !
 ! D124  D(47,51,60,62)        -61.3971         estimate D2E/DX2                !
 ! D125  D(47,51,60,63)        180.0            estimate D2E/DX2                !
 ! D126  D(46,53,54,55)        180.0            estimate D2E/DX2                !
 ! D127  D(46,53,54,58)          0.0            estimate D2E/DX2                !
 ! D128  D(57,53,54,55)          0.0            estimate D2E/DX2                !
 ! D129  D(57,53,54,58)        180.0            estimate D2E/DX2                !
 ! D130  D(46,53,57,56)        180.0            estimate D2E/DX2                !
 ! D131  D(54,53,57,56)          0.0            estimate D2E/DX2                !
 ! D132  D(53,54,55,56)          0.0            estimate D2E/DX2                !
 ! D133  D(53,54,55,59)        180.0            estimate D2E/DX2                !
 ! D134  D(58,54,55,56)        180.0            estimate D2E/DX2                !
 ! D135  D(58,54,55,59)          0.0            estimate D2E/DX2                !
 ! D136  D(53,54,58,64)        180.0            estimate D2E/DX2                !
 ! D137  D(55,54,58,64)          0.0            estimate D2E/DX2                !
 ! D138  D(54,55,56,57)          0.0            estimate D2E/DX2                !
 ! D139  D(54,55,56,72)        180.0            estimate D2E/DX2                !
 ! D140  D(59,55,56,57)        180.0            estimate D2E/DX2                !
 ! D141  D(59,55,56,72)          0.0            estimate D2E/DX2                !
 ! D142  D(55,56,57,53)          0.0            estimate D2E/DX2                !
 ! D143  D(72,56,57,53)        180.0            estimate D2E/DX2                !
 ! D144  D(55,56,72,71)        180.0            estimate D2E/DX2                !
 ! D145  D(55,56,72,73)          0.0            estimate D2E/DX2                !
 ! D146  D(57,56,72,71)          0.0            estimate D2E/DX2                !
 ! D147  D(57,56,72,73)        180.0            estimate D2E/DX2                !
 ! D148  D(54,58,64,65)        180.0            estimate D2E/DX2                !
 ! D149  D(54,58,64,66)        -61.3917         estimate D2E/DX2                !
 ! D150  D(54,58,64,67)         61.3917         estimate D2E/DX2                !
 ! D151  D(73,69,70,71)          0.0            estimate D2E/DX2                !
 ! D152  D(73,69,70,74)        180.0            estimate D2E/DX2                !
 ! D153  D(76,69,70,71)        180.0            estimate D2E/DX2                !
 ! D154  D(76,69,70,74)          0.0            estimate D2E/DX2                !
 ! D155  D(70,69,73,72)          0.0            estimate D2E/DX2                !
 ! D156  D(76,69,73,72)        180.0            estimate D2E/DX2                !
 ! D157  D(70,69,76,77)        180.0            estimate D2E/DX2                !
 ! D158  D(70,69,76,80)          0.0            estimate D2E/DX2                !
 ! D159  D(73,69,76,77)          0.0            estimate D2E/DX2                !
 ! D160  D(73,69,76,80)        180.0            estimate D2E/DX2                !
 ! D161  D(69,70,71,72)          0.0            estimate D2E/DX2                !
 ! D162  D(69,70,71,75)        180.0            estimate D2E/DX2                !
 ! D163  D(74,70,71,72)        180.0            estimate D2E/DX2                !
 ! D164  D(74,70,71,75)          0.0            estimate D2E/DX2                !
 ! D165  D(69,70,74,83)        180.0            estimate D2E/DX2                !
 ! D166  D(71,70,74,83)          0.0            estimate D2E/DX2                !
 ! D167  D(70,71,72,56)        180.0            estimate D2E/DX2                !
 ! D168  D(70,71,72,73)          0.0            estimate D2E/DX2                !
 ! D169  D(75,71,72,56)          0.0            estimate D2E/DX2                !
 ! D170  D(75,71,72,73)        180.0            estimate D2E/DX2                !
 ! D171  D(56,72,73,69)        180.0            estimate D2E/DX2                !
 ! D172  D(71,72,73,69)          0.0            estimate D2E/DX2                !
 ! D173  D(70,74,83,84)         61.3764         estimate D2E/DX2                !
 ! D174  D(70,74,83,85)        -61.4465         estimate D2E/DX2                !
 ! D175  D(70,74,83,86)        180.0            estimate D2E/DX2                !
 ! D176  D(69,76,77,78)        180.0            estimate D2E/DX2                !
 ! D177  D(69,76,77,81)          0.0            estimate D2E/DX2                !
 ! D178  D(80,76,77,78)          0.0            estimate D2E/DX2                !
 ! D179  D(80,76,77,81)        180.0            estimate D2E/DX2                !
 ! D180  D(69,76,80,79)        180.0            estimate D2E/DX2                !
 ! D181  D(77,76,80,79)          0.0            estimate D2E/DX2                !
 ! D182  D(76,77,78,79)          0.0            estimate D2E/DX2                !
 ! D183  D(76,77,78,82)        180.0            estimate D2E/DX2                !
 ! D184  D(81,77,78,79)        180.0            estimate D2E/DX2                !
 ! D185  D(81,77,78,82)          0.0            estimate D2E/DX2                !
 ! D186  D(76,77,81,87)        180.0            estimate D2E/DX2                !
 ! D187  D(78,77,81,87)          0.0            estimate D2E/DX2                !
 ! D188  D(77,78,79,4)         180.0            estimate D2E/DX2                !
 ! D189  D(77,78,79,80)          0.0            estimate D2E/DX2                !
 ! D190  D(82,78,79,4)           0.0            estimate D2E/DX2                !
 ! D191  D(82,78,79,80)        180.0            estimate D2E/DX2                !
 ! D192  D(4,79,80,76)         180.0            estimate D2E/DX2                !
 ! D193  D(78,79,80,76)          0.0            estimate D2E/DX2                !
 ! D194  D(77,81,87,88)        180.0            estimate D2E/DX2                !
 ! D195  D(77,81,87,89)        -61.4133         estimate D2E/DX2                !
 ! D196  D(77,81,87,90)         61.4402         estimate D2E/DX2                !
 --------------------------------------------------------------------------------
 Trust Radius=3.00D-01 FncErr=1.00D-07 GrdErr=1.00D-06 EigMax=2.50D+02 EigMin=1.00D-04
 Number of steps in this run=    463 maximum allowed number of steps=    540.
 GradGradGradGradGradGradGradGradGradGradGradGradGradGradGradGradGradGrad

 Leave Link  103 at Fri Jan 10 16:32:46 2020, MaxMem=  6710886400 cpu:               0.2 elap:               0.0
 (Enter /apps/gaussian/g16-a03/l202.exe)
 Stoichiometry    C40H34O8S8
 Framework group  C1[X(C40H34O8S8)]
 Deg. of freedom   264
 Full point group                 C1      NOp   1
 Largest Abelian subgroup         C1      NOp   1
 Largest concise Abelian subgroup C1      NOp   1
                         Standard orientation:                         
 ---------------------------------------------------------------------
 Center     Atomic      Atomic             Coordinates (Angstroms)
 Number     Number       Type             X           Y           Z
 ---------------------------------------------------------------------
      1          6           0        3.332524    0.007827    0.000000
      2          6           0        2.684440    1.230916    0.000000
      3          6           0        1.255889    1.173344    0.000000
      4          6           0        0.768675   -0.098562    0.000000
      5         16           0        2.076694   -1.331716    0.000000
      6          8           0        3.447418    2.394921    0.000000
      7          1           0        0.620321    2.045086    0.000000
      8          6           0        4.730963   -0.268035    0.000000
      9          6           0        5.382068   -1.490187    0.000000
     10          6           0        6.800451   -1.440401    0.000000
     11          6           0        7.323699   -0.167262    0.000000
     12         16           0        5.981816    1.072614    0.000000
     13          8           0        4.617154   -2.651151    0.000000
     14          1           0        7.425872   -2.318928    0.000000
     15          6           0        2.765578    3.676742    0.000000
     16          1           0        2.149956    3.794887    0.895000
     17          1           0        2.149956    3.794887   -0.895000
     18          1           0        3.556576    4.419055    0.000000
     19          6           0        5.294910   -3.936886    0.000000
     20          1           0        4.500998   -4.675135    0.000000
     21          1           0        5.909511   -4.056010   -0.895000
     22          1           0        5.909511   -4.056010    0.895000
     23          6           0       11.281674    0.352514    0.000000
     24          6           0       10.630570    1.574666    0.000000
     25          6           0        9.212165    1.523880    0.000000
     26          6           0        8.688917    0.250741    0.000000
     27         16           0       10.030822   -0.988136    0.000000
     28          8           0       11.395483    2.735630    0.000000
     29          1           0        8.586744    2.402407    0.000000
     30          6           0       12.680113    0.076651    0.000000
     31          6           0       13.328218   -1.145437    0.000000
     32          6           0       14.756770   -1.087866    0.000000
     33          6           0       15.243962    0.183041    0.000000
     34         16           0       13.935943    1.416194    0.000000
     35          8           0       12.566219   -2.310464    0.000000
     36          1           0       15.392337   -1.959608    0.000000
     37          6           0       10.716728    4.021385    0.000000
     38          1           0       10.102126    4.140509    0.894000
     39          1           0       10.103126    4.140488   -0.895000
     40          1           0       11.511639    4.759614    0.000000
     41          6           0       13.248059   -3.592285    0.000000
     42          1           0       12.457061   -4.334598    0.000000
     43          1           0       13.862681   -3.710409   -0.894000
     44          1           0       13.862681   -3.710409    0.895000
     45          1           0       16.268126    0.508290    0.000000
     46          6           0      -12.680178   -0.076650    0.000000
     47          6           0      -13.328261    1.146438    0.000000
     48          6           0      -14.756813    1.088867    0.000000
     49          6           0      -15.244027   -0.183039    0.000000
     50         16           0      -13.936008   -1.416193    0.000000
     51          8           0      -12.565284    2.310444    0.000000
     52          1           0      -15.392381    1.960609    0.000000
     53          6           0      -11.281738   -0.352512    0.000000
     54          6           0      -10.630634   -1.574664    0.000000
     55          6           0       -9.212251   -1.524878    0.000000
     56          6           0       -8.689002   -0.251739    0.000000
     57         16           0      -10.030886    0.988137    0.000000
     58          8           0      -11.395547   -2.735628    0.000000
     59          1           0       -8.586830   -2.403405    0.000000
     60          6           0      -13.247124    3.592265    0.000000
     61          1           0      -13.862746    3.710410    0.895000
     62          1           0      -13.862746    3.710410   -0.895000
     63          1           0      -12.456126    4.334578    0.000000
     64          6           0      -10.717792   -4.021363    0.000000
     65          1           0      -11.511704   -4.759612    0.000000
     66          1           0      -10.103191   -4.140487   -0.895000
     67          1           0      -10.103191   -4.140487    0.895000
     68          1           0      -16.269190   -0.508268    0.000000
     69          6           0       -4.731027    0.268037    0.000000
     70          6           0       -5.382132    1.490189    0.000000
     71          6           0       -6.800536    1.439403    0.000000
     72          6           0       -7.323785    0.166264    0.000000
     73         16           0       -5.981880   -1.072613    0.000000
     74          8           0       -4.617219    2.651152    0.000000
     75          1           0       -7.425957    2.317930    0.000000
     76          6           0       -3.332588   -0.007826    0.000000
     77          6           0       -2.684483   -1.229914    0.000000
     78          6           0       -1.255932   -1.172343    0.000000
     79          6           0       -0.768739    0.098564    0.000000
     80         16           0       -2.076758    1.331717    0.000000
     81          8           0       -3.446482   -2.394941    0.000000
     82          1           0       -0.620364   -2.044085    0.000000
     83          6           0       -5.295974    3.936908    0.000000
     84          1           0       -5.910575    4.056032    0.894000
     85          1           0       -5.909575    4.056011   -0.895000
     86          1           0       -4.501062    4.675137    0.000000
     87          6           0       -2.764642   -3.676762    0.000000
     88          1           0       -3.555640   -4.419075    0.000000
     89          1           0       -2.150020   -3.794886   -0.894000
     90          1           0       -2.150020   -3.794886    0.895000
 ---------------------------------------------------------------------
 Rotational constants (GHZ):           0.1480393           0.0066984           0.0064105
 Leave Link  202 at Fri Jan 10 16:32:46 2020, MaxMem=  6710886400 cpu:               0.1 elap:               0.0
 (Enter /apps/gaussian/g16-a03/l301.exe)
 Standard basis: 6-311G (5D, 7F)
 Ernie: Thresh=  0.10000D-02 Tol=  0.10000D-05 Strict=F.
 There are   894 symmetry adapted cartesian basis functions of A   symmetry.
 There are   894 symmetry adapted basis functions of A   symmetry.
   894 basis functions,  1738 primitive gaussians,   894 cartesian basis functions
   233 alpha electrons      233 beta electrons
       nuclear repulsion energy      8345.6237728664 Hartrees.
 IExCor=  402 DFT=T Ex+Corr=B3LYP ExCW=0 ScaHFX=  0.200000
 ScaDFX=  0.800000  0.720000  1.000000  0.810000 ScalE2=  1.000000  1.000000
 IRadAn=      5 IRanWt=     -1 IRanGd=            0 ICorTp=0 IEmpDi=  4
 NAtoms=   90 NActive=   90 NUniq=   90 SFac= 1.00D+00 NAtFMM=   60 NAOKFM=T Big=T
 Integral buffers will be    131072 words long.
 Raffenetti 2 integral format.
 Two-electron integral symmetry is turned on.
 Leave Link  301 at Fri Jan 10 16:32:46 2020, MaxMem=  6710886400 cpu:               0.5 elap:               0.1
 (Enter /apps/gaussian/g16-a03/l302.exe)
 NPDir=0 NMtPBC=     1 NCelOv=     1 NCel=       1 NClECP=     1 NCelD=      1
         NCelK=      1 NCelE2=     1 NClLst=     1 CellRange=     0.0.
 One-electron integrals computed using PRISM.
 One-electron integral symmetry used in STVInt
 NBasis=   894 RedAO= T EigKep=  2.39D-04  NBF=   894
 NBsUse=   894 1.00D-06 EigRej= -1.00D+00 NBFU=   894
 Precomputing XC quadrature grid using
 IXCGrd= 4 IRadAn=           5 IRanWt=          -1 IRanGd=           0 AccXCQ= 0.00D+00.
 Generated NRdTot=       0 NPtTot=           0 NUsed=           0 NTot=          32
 NSgBfM=   577   567   571   576   577 MxSgAt=    90 MxSgA2=    90.
 Leave Link  302 at Fri Jan 10 16:32:49 2020, MaxMem=  6710886400 cpu:              21.9 elap:               2.8
 (Enter /apps/gaussian/g16-a03/l303.exe)
 DipDrv:  MaxL=1.
 Leave Link  303 at Fri Jan 10 16:32:49 2020, MaxMem=  6710886400 cpu:               1.1 elap:               0.2
 (Enter /apps/gaussian/g16-a03/l401.exe)
 ExpMin= 7.71D-02 ExpMax= 9.34D+04 ExpMxC= 3.17D+03 IAcc=3 IRadAn=         5 AccDes= 0.00D+00
 Harris functional with IExCor=  402 and IRadAn=       5 diagonalized for initial guess.
 HarFok:  IExCor=  402 AccDes= 0.00D+00 IRadAn=         5 IDoV= 1 UseB2=F ITyADJ=14
 ICtDFT=  3500011 ScaDFX=  1.000000  1.000000  1.000000  1.000000
 FoFCou: FMM=F IPFlag=           0 FMFlag=      100000 FMFlg1=        2001
         NFxFlg=           0 DoJE=T BraDBF=F KetDBF=T FulRan=T
         wScrn=  0.000000 ICntrl=       500 IOpCl=  0 I1Cent=   200000004 NGrid=           0
         NMat0=    1 NMatS0=      1 NMatT0=    0 NMatD0=    1 NMtDS0=    0 NMtDT0=    0
 Petite list used in FoFCou.
 Harris En= -5331.41010916021    
 JPrj=0 DoOrth=F DoCkMO=F.
 Leave Link  401 at Fri Jan 10 16:32:59 2020, MaxMem=  6710886400 cpu:              80.3 elap:              10.1
 (Enter /apps/gaussian/g16-a03/l502.exe)
 Integral symmetry usage will be decided dynamically.
 Closed shell SCF:
 Using DIIS extrapolation, IDIIS=  1040.
 NGot=  6710886400 LenX=  6709271174 LenY=  6708471044
 Requested convergence on RMS density matrix=1.00D-08 within 128 cycles.
 Requested convergence on MAX density matrix=1.00D-06.
 Requested convergence on             energy=1.00D-06.
 No special actions if energy rises.
 Fock matrices will be formed incrementally for  20 cycles.
 Integral accuracy reduced to 1.0D-05 until final iterations.

 Cycle   1  Pass 0  IDiag  1:
 FoFJK:  IHMeth= 1 ICntrl=       0 DoSepK=F KAlg= 0 I1Cent=           0 FoldK=F
 IRaf= 410000000 NMat=       1 IRICut=       1 DoRegI=T DoRafI=F ISym2E= 0 IDoP0=0 IntGTp=1.
 FoFCou: FMM=T IPFlag=           0 FMFlag=      100000 FMFlg1=        2001
         NFxFlg=           0 DoJE=F BraDBF=F KetDBF=F FulRan=T
         wScrn=  0.000000 ICntrl=         0 IOpCl=  0 I1Cent=           0 NGrid=           0
         NMat0=    1 NMatS0=      1 NMatT0=    0 NMatD0=    1 NMtDS0=    0 NMtDT0=    0
 Symmetry not used in FoFCou.
 FMM levels:  10  Number of levels for PrismC:   9
 E= -5330.26805949605    
 DIIS: error= 3.43D-02 at cycle   1 NSaved=   1.
 NSaved= 1 IEnMin= 1 EnMin= -5330.26805949605     IErMin= 1 ErrMin= 3.43D-02
 ErrMax= 3.43D-02  0.00D+00 EMaxC= 1.00D-01 BMatC= 1.55D+00 BMatP= 1.55D+00
 IDIUse=3 WtCom= 6.57D-01 WtEn= 3.43D-01
 Coeff-Com:  0.100D+01
 Coeff-En:   0.100D+01
 Coeff:      0.100D+01
 Gap=     0.032 Goal=   None    Shift=    0.000
 GapD=    0.032 DampG=0.250 DampE=0.500 DampFc=0.2500 IDamp=-1.
 Damping current iteration by 2.50D-01
 RMSDP=3.41D-03 MaxDP=1.31D-01              OVMax= 2.48D-01

 Cycle   2  Pass 0  IDiag  1:
 RMSU=  8.52D-04    CP:  9.98D-01
 E= -5330.78095001144     Delta-E=       -0.512890515387 Rises=F Damp=T
 DIIS: error= 1.76D-02 at cycle   2 NSaved=   2.
 NSaved= 2 IEnMin= 2 EnMin= -5330.78095001144     IErMin= 2 ErrMin= 1.76D-02
 ErrMax= 1.76D-02  0.00D+00 EMaxC= 1.00D-01 BMatC= 3.84D-01 BMatP= 1.55D+00
 IDIUse=3 WtCom= 8.24D-01 WtEn= 1.76D-01
 Coeff-Com: -0.801D+00 0.180D+01
 Coeff-En:   0.000D+00 0.100D+01
 Coeff:     -0.660D+00 0.166D+01
 Gap=     0.148 Goal=   None    Shift=    0.000
 RMSDP=1.43D-03 MaxDP=9.57D-02 DE=-5.13D-01 OVMax= 2.29D-01

 Cycle   3  Pass 0  IDiag  1:
 RMSU=  1.28D-03    CP:  1.03D+00  1.66D+00
 E= -5331.59924102034     Delta-E=       -0.818291008904 Rises=F Damp=F
 DIIS: error= 4.75D-03 at cycle   3 NSaved=   3.
 NSaved= 3 IEnMin= 3 EnMin= -5331.59924102034     IErMin= 3 ErrMin= 4.75D-03
 ErrMax= 4.75D-03  0.00D+00 EMaxC= 1.00D-01 BMatC= 1.35D-02 BMatP= 3.84D-01
 IDIUse=3 WtCom= 9.53D-01 WtEn= 4.75D-02
 Coeff-Com: -0.137D+00 0.334D+00 0.802D+00
 Coeff-En:   0.000D+00 0.000D+00 0.100D+01
 Coeff:     -0.130D+00 0.319D+00 0.812D+00
 Gap=     0.079 Goal=   None    Shift=    0.000
 RMSDP=3.68D-04 MaxDP=3.04D-02 DE=-8.18D-01 OVMax= 4.71D-02

 Cycle   4  Pass 0  IDiag  1:
 RMSU=  2.84D-04    CP:  1.02D+00  1.69D+00  8.20D-01
 E= -5331.59872385662     Delta-E=        0.000517163722 Rises=F Damp=F
 DIIS: error= 3.77D-03 at cycle   4 NSaved=   4.
 NSaved= 4 IEnMin= 3 EnMin= -5331.59924102034     IErMin= 4 ErrMin= 3.77D-03
 ErrMax= 3.77D-03  0.00D+00 EMaxC= 1.00D-01 BMatC= 1.41D-02 BMatP= 1.35D-02
 IDIUse=3 WtCom= 9.62D-01 WtEn= 3.77D-02
 Coeff-Com: -0.180D-01 0.631D-01 0.504D+00 0.451D+00
 Coeff-En:   0.000D+00 0.000D+00 0.508D+00 0.492D+00
 Coeff:     -0.174D-01 0.607D-01 0.504D+00 0.453D+00
 Gap=     0.078 Goal=   None    Shift=    0.000
 RMSDP=2.15D-04 MaxDP=1.35D-02 DE= 5.17D-04 OVMax= 2.94D-02

 Cycle   5  Pass 0  IDiag  1:
 RMSU=  1.20D-04    CP:  1.02D+00  1.65D+00  8.22D-01  3.90D-01
 E= -5331.61191243500     Delta-E=       -0.013188578379 Rises=F Damp=F
 DIIS: error= 1.36D-03 at cycle   5 NSaved=   5.
 NSaved= 5 IEnMin= 5 EnMin= -5331.61191243500     IErMin= 5 ErrMin= 1.36D-03
 ErrMax= 1.36D-03  0.00D+00 EMaxC= 1.00D-01 BMatC= 1.54D-03 BMatP= 1.35D-02
 IDIUse=3 WtCom= 9.86D-01 WtEn= 1.36D-02
 Coeff-Com:  0.607D-02 0.142D-02 0.252D+00 0.291D+00 0.449D+00
 Coeff-En:   0.000D+00 0.000D+00 0.000D+00 0.613D-01 0.939D+00
 Coeff:      0.599D-02 0.140D-02 0.249D+00 0.288D+00 0.456D+00
 Gap=     0.079 Goal=   None    Shift=    0.000
 RMSDP=7.91D-05 MaxDP=4.57D-03 DE=-1.32D-02 OVMax= 1.29D-02

 Cycle   6  Pass 0  IDiag  1:
 RMSU=  4.08D-05    CP:  1.02D+00  1.64D+00  8.33D-01  5.40D-01  5.83D-01
 E= -5331.61339339586     Delta-E=       -0.001480960862 Rises=F Damp=F
 DIIS: error= 4.47D-04 at cycle   6 NSaved=   6.
 NSaved= 6 IEnMin= 6 EnMin= -5331.61339339586     IErMin= 6 ErrMin= 4.47D-04
 ErrMax= 4.47D-04  0.00D+00 EMaxC= 1.00D-01 BMatC= 1.60D-04 BMatP= 1.54D-03
 IDIUse=3 WtCom= 9.96D-01 WtEn= 4.47D-03
 Coeff-Com:  0.786D-02-0.949D-02 0.981D-01 0.123D+00 0.282D+00 0.498D+00
 Coeff-En:   0.000D+00 0.000D+00 0.000D+00 0.000D+00 0.853D-01 0.915D+00
 Coeff:      0.782D-02-0.944D-02 0.976D-01 0.123D+00 0.281D+00 0.500D+00
 Gap=     0.079 Goal=   None    Shift=    0.000
 RMSDP=2.90D-05 MaxDP=2.71D-03 DE=-1.48D-03 OVMax= 4.31D-03

 Cycle   7  Pass 0  IDiag  1:
 RMSU=  1.55D-05    CP:  1.02D+00  1.64D+00  8.40D-01  5.07D-01  6.70D-01
                    CP:  5.61D-01
 E= -5331.61354694469     Delta-E=       -0.000153548823 Rises=F Damp=F
 DIIS: error= 1.77D-04 at cycle   7 NSaved=   7.
 NSaved= 7 IEnMin= 7 EnMin= -5331.61354694469     IErMin= 7 ErrMin= 1.77D-04
 ErrMax= 1.77D-04  0.00D+00 EMaxC= 1.00D-01 BMatC= 2.81D-05 BMatP= 1.60D-04
 IDIUse=3 WtCom= 9.98D-01 WtEn= 1.77D-03
 Coeff-Com:  0.463D-02-0.677D-02 0.280D-01 0.371D-01 0.117D+00 0.337D+00
 Coeff-Com:  0.484D+00
 Coeff-En:   0.000D+00 0.000D+00 0.000D+00 0.000D+00 0.000D+00 0.149D+00
 Coeff-En:   0.851D+00
 Coeff:      0.462D-02-0.675D-02 0.279D-01 0.371D-01 0.117D+00 0.336D+00
 Coeff:      0.484D+00
 Gap=     0.079 Goal=   None    Shift=    0.000
 RMSDP=1.11D-05 MaxDP=6.57D-04 DE=-1.54D-04 OVMax= 1.51D-03

 Cycle   8  Pass 0  IDiag  1:
 RMSU=  5.55D-06    CP:  1.02D+00  1.64D+00  8.41D-01  5.11D-01  6.51D-01
                    CP:  6.76D-01  5.09D-01
 E= -5331.61357492418     Delta-E=       -0.000027979493 Rises=F Damp=F
 DIIS: error= 4.79D-05 at cycle   8 NSaved=   8.
 NSaved= 8 IEnMin= 8 EnMin= -5331.61357492418     IErMin= 8 ErrMin= 4.79D-05
 ErrMax= 4.79D-05  0.00D+00 EMaxC= 1.00D-01 BMatC= 2.35D-06 BMatP= 2.81D-05
 IDIUse=1 WtCom= 1.00D+00 WtEn= 0.00D+00
 Coeff-Com:  0.194D-02-0.305D-02 0.596D-02 0.815D-02 0.372D-01 0.143D+00
 Coeff-Com:  0.292D+00 0.515D+00
 Coeff:      0.194D-02-0.305D-02 0.596D-02 0.815D-02 0.372D-01 0.143D+00
 Coeff:      0.292D+00 0.515D+00
 Gap=     0.079 Goal=   None    Shift=    0.000
 RMSDP=4.96D-06 MaxDP=2.10D-04 DE=-2.80D-05 OVMax= 4.74D-04

 Initial convergence to 1.0D-05 achieved.  Increase integral accuracy.
 Cycle   9  Pass 1  IDiag  1:
 E= -5331.61337992609     Delta-E=        0.000194998089 Rises=F Damp=F
 DIIS: error= 1.44D-04 at cycle   1 NSaved=   1.
 NSaved= 1 IEnMin= 1 EnMin= -5331.61337992609     IErMin= 1 ErrMin= 1.44D-04
 ErrMax= 1.44D-04  0.00D+00 EMaxC= 1.00D-01 BMatC= 1.32D-05 BMatP= 1.32D-05
 IDIUse=3 WtCom= 9.99D-01 WtEn= 1.44D-03
 Coeff-Com:  0.100D+01
 Coeff-En:   0.100D+01
 Coeff:      0.100D+01
 Gap=     0.079 Goal=   None    Shift=    0.000
 RMSDP=4.96D-06 MaxDP=2.10D-04 DE= 1.95D-04 OVMax= 6.01D-04

 Cycle  10  Pass 1  IDiag  1:
 RMSU=  1.43D-04    CP:  9.98D-01
 E= -5331.61339383271     Delta-E=       -0.000013906625 Rises=F Damp=F
 DIIS: error= 5.06D-05 at cycle   2 NSaved=   2.
 NSaved= 2 IEnMin= 2 EnMin= -5331.61339383271     IErMin= 2 ErrMin= 5.06D-05
 ErrMax= 5.06D-05  0.00D+00 EMaxC= 1.00D-01 BMatC= 1.58D-06 BMatP= 1.32D-05
 IDIUse=1 WtCom= 1.00D+00 WtEn= 0.00D+00
 Coeff-Com:  0.134D+00 0.866D+00
 Coeff:      0.134D+00 0.866D+00
 Gap=     0.079 Goal=   None    Shift=    0.000
 RMSDP=6.45D-06 MaxDP=3.18D-04 DE=-1.39D-05 OVMax= 1.00D-03

 Cycle  11  Pass 1  IDiag  1:
 RMSU=  6.30D-06    CP:  9.98D-01  1.01D+00
 E= -5331.61338915742     Delta-E=        0.000004675294 Rises=F Damp=F
 DIIS: error= 9.68D-05 at cycle   3 NSaved=   3.
 NSaved= 3 IEnMin= 2 EnMin= -5331.61339383271     IErMin= 2 ErrMin= 5.06D-05
 ErrMax= 9.68D-05  0.00D+00 EMaxC= 1.00D-01 BMatC= 5.70D-06 BMatP= 1.58D-06
 IDIUse=1 WtCom= 1.00D+00 WtEn= 0.00D+00
 Coeff-Com: -0.517D-02 0.659D+00 0.347D+00
 Coeff:     -0.517D-02 0.659D+00 0.347D+00
 Gap=     0.079 Goal=   None    Shift=    0.000
 RMSDP=4.21D-06 MaxDP=1.91D-04 DE= 4.68D-06 OVMax= 6.66D-04

 Cycle  12  Pass 1  IDiag  1:
 RMSU=  6.78D-07    CP:  9.98D-01  1.01D+00  3.42D-01
 E= -5331.61339554200     Delta-E=       -0.000006384584 Rises=F Damp=F
 DIIS: error= 6.83D-06 at cycle   4 NSaved=   4.
 NSaved= 4 IEnMin= 4 EnMin= -5331.61339554200     IErMin= 4 ErrMin= 6.83D-06
 ErrMax= 6.83D-06  0.00D+00 EMaxC= 1.00D-01 BMatC= 3.92D-08 BMatP= 1.58D-06
 IDIUse=1 WtCom= 1.00D+00 WtEn= 0.00D+00
 Coeff-Com: -0.458D-02 0.423D+00 0.227D+00 0.354D+00
 Coeff:     -0.458D-02 0.423D+00 0.227D+00 0.354D+00
 Gap=     0.079 Goal=   None    Shift=    0.000
 RMSDP=3.55D-07 MaxDP=2.03D-05 DE=-6.38D-06 OVMax= 5.70D-05

 Cycle  13  Pass 1  IDiag  1:
 RMSU=  2.48D-07    CP:  9.98D-01  1.01D+00  3.56D-01  6.49D-01
 E= -5331.61339558292     Delta-E=       -0.000000040916 Rises=F Damp=F
 DIIS: error= 1.39D-06 at cycle   5 NSaved=   5.
 NSaved= 5 IEnMin= 5 EnMin= -5331.61339558292     IErMin= 5 ErrMin= 1.39D-06
 ErrMax= 1.39D-06  0.00D+00 EMaxC= 1.00D-01 BMatC= 1.38D-09 BMatP= 3.92D-08
 IDIUse=1 WtCom= 1.00D+00 WtEn= 0.00D+00
 Coeff-Com: -0.239D-02 0.208D+00 0.111D+00 0.214D+00 0.469D+00
 Coeff:     -0.239D-02 0.208D+00 0.111D+00 0.214D+00 0.469D+00
 Gap=     0.079 Goal=   None    Shift=    0.000
 RMSDP=9.47D-08 MaxDP=5.91D-06 DE=-4.09D-08 OVMax= 1.43D-05

 Cycle  14  Pass 1  IDiag  1:
 RMSU=  7.13D-08    CP:  9.98D-01  1.01D+00  3.54D-01  6.70D-01  7.74D-01
 E= -5331.61339558441     Delta-E=       -0.000000001486 Rises=F Damp=F
 DIIS: error= 4.10D-07 at cycle   6 NSaved=   6.
 NSaved= 6 IEnMin= 6 EnMin= -5331.61339558441     IErMin= 6 ErrMin= 4.10D-07
 ErrMax= 4.10D-07  0.00D+00 EMaxC= 1.00D-01 BMatC= 2.00D-10 BMatP= 1.38D-09
 IDIUse=1 WtCom= 1.00D+00 WtEn= 0.00D+00
 Coeff-Com: -0.830D-03 0.679D-01 0.366D-01 0.839D-01 0.305D+00 0.508D+00
 Coeff:     -0.830D-03 0.679D-01 0.366D-01 0.839D-01 0.305D+00 0.508D+00
 Gap=     0.079 Goal=   None    Shift=    0.000
 RMSDP=3.42D-08 MaxDP=1.95D-06 DE=-1.49D-09 OVMax= 5.03D-06

 Cycle  15  Pass 1  IDiag  1:
 RMSU=  2.98D-08    CP:  9.98D-01  1.01D+00  3.54D-01  6.58D-01  8.03D-01
                    CP:  8.98D-01
 E= -5331.61339558458     Delta-E=       -0.000000000176 Rises=F Damp=F
 DIIS: error= 1.49D-07 at cycle   7 NSaved=   7.
 NSaved= 7 IEnMin= 7 EnMin= -5331.61339558458     IErMin= 7 ErrMin= 1.49D-07
 ErrMax= 1.49D-07  0.00D+00 EMaxC= 1.00D-01 BMatC= 2.22D-11 BMatP= 2.00D-10
 IDIUse=1 WtCom= 1.00D+00 WtEn= 0.00D+00
 Coeff-Com: -0.110D-03 0.733D-02 0.398D-02 0.149D-01 0.100D+00 0.294D+00
 Coeff-Com:  0.580D+00
 Coeff:     -0.110D-03 0.733D-02 0.398D-02 0.149D-01 0.100D+00 0.294D+00
 Coeff:      0.580D+00
 Gap=     0.079 Goal=   None    Shift=    0.000
 RMSDP=9.40D-09 MaxDP=3.65D-07 DE=-1.76D-10 OVMax= 1.70D-06

 SCF Done:  E(RB3LYP) =  -5331.61339558     A.U. after   15 cycles
            NFock= 15  Conv=0.94D-08     -V/T= 2.0021
 KE= 5.320346380594D+03 PE=-2.927319289399D+04 EE= 1.027560934494D+04
 Leave Link  502 at Fri Jan 10 16:36:17 2020, MaxMem=  6710886400 cpu:            1578.8 elap:             197.9
 (Enter /apps/gaussian/g16-a03/l601.exe)
 Copying SCF densities to generalized density rwf, IOpCl= 0 IROHF=0.

 **********************************************************************

            Population analysis using the SCF density.

 **********************************************************************

 Orbital symmetries:
       Occupied  (A) (A) (A) (A) (A) (A) (A) (A) (A) (A) (A) (A)
                 (A) (A) (A) (A) (A) (A) (A) (A) (A) (A) (A) (A)
                 (A) (A) (A) (A) (A) (A) (A) (A) (A) (A) (A) (A)
                 (A) (A) (A) (A) (A) (A) (A) (A) (A) (A) (A) (A)
                 (A) (A) (A) (A) (A) (A) (A) (A) (A) (A) (A) (A)
                 (A) (A) (A) (A) (A) (A) (A) (A) (A) (A) (A) (A)
                 (A) (A) (A) (A) (A) (A) (A) (A) (A) (A) (A) (A)
                 (A) (A) (A) (A) (A) (A) (A) (A) (A) (A) (A) (A)
                 (A) (A) (A) (A) (A) (A) (A) (A) (A) (A) (A) (A)
                 (A) (A) (A) (A) (A) (A) (A) (A) (A) (A) (A) (A)
                 (A) (A) (A) (A) (A) (A) (A) (A) (A) (A) (A) (A)
[...]
    19  C    0.285402
    23  C   -0.311051
    24  C    0.301705
    25  C    0.120970
    26  C   -0.348784
    27  S    0.493229
    28  O   -0.538529
    30  C   -0.364854
    31  C    0.354395
    32  C    0.113622
    33  C   -0.270765
    34  S    0.419110
    35  O   -0.535138
    37  C    0.285092
    41  C    0.282607
    46  C   -0.364855
    47  C    0.354395
    48  C    0.113623
    49  C   -0.270765
    50  S    0.419109
    51  O   -0.535138
    53  C   -0.311050
    54  C    0.301705
    55  C    0.120970
    56  C   -0.348784
    57  S    0.493229
    58  O   -0.538529
    60  C    0.282607
    64  C    0.285093
    69  C   -0.326806
    70  C    0.304764
    71  C    0.115715
    72  C   -0.336753
    73  S    0.497278
    74  O   -0.539199
    76  C   -0.325901
    77  C    0.304117
    78  C    0.116989
    79  C   -0.340294
    80  S    0.496683
    81  O   -0.539231
    83  C    0.285402
    87  C    0.285626
 Electronic spatial extent (au):  <R**2>=         146712.6765
 Charge=             -0.0000 electrons
 Dipole moment (field-independent basis, Debye):
    X=             -0.0000    Y=              0.0000    Z=              0.0002  Tot=              0.0002
 Quadrupole moment (field-independent basis, Debye-Ang):
   XX=           -311.7775   YY=           -289.8639   ZZ=           -404.8244
   XY=            -47.3890   XZ=              0.0020   YZ=             -0.0019
 Traceless Quadrupole moment (field-independent basis, Debye-Ang):
   XX=             23.7111   YY=             45.6247   ZZ=            -69.3358
   XY=            -47.3890   XZ=              0.0020   YZ=             -0.0019
 Octapole moment (field-independent basis, Debye-Ang**2):
  XXX=             -0.0014  YYY=             -0.0001  ZZZ=              0.0002  XYY=             -0.0000
  XXY=              0.0002  XXZ=              0.0207  XZZ=             -0.0001  YZZ=              0.0000
  YYZ=              0.0023  XYZ=              0.0025
 Hexadecapole moment (field-independent basis, Debye-Ang**3):
 XXXX=        -160336.2302 YYYY=          -7462.9761 ZZZZ=           -531.0470 XXXY=         -11341.6781
 XXXZ=              0.4094 YYYX=           -333.8637 YYYZ=              0.0752 ZZZX=             -0.0390
 ZZZY=              0.1205 XXYY=         -26223.2767 XXZZ=         -34127.6859 YYZZ=          -1682.1069
 XXYZ=             -0.1176 YYXZ=              0.0084 ZZXY=            -34.0974
 N-N= 8.362141963073D+03 E-N=-2.930659026742D+04  KE= 5.320326891496D+03
 No NMR shielding tensors so no spin-rotation constants.
 Leave Link  601 at Fri Jan 10 17:05:26 2020, MaxMem=  6710886400 cpu:               5.5 elap:               0.8
 (Enter /apps/gaussian/g16-a03/l602.exe)
 FitSet:  NAtFit=    90 NAtPot=    90 NAtFrz=     0 MDM=    94 TotChg=   0.00000
 Breneman (CHELPG) radii used.
 Generate Potential Derived Charges using the Breneman model, NDens= 1.
 Grid spacing= 0.300 Box extension= 2.800
 NStep X,Y,Z=  128     52     26   Total possible points=      173056
 Number of Points to Fit=   51344

 **********************************************************************

            Electrostatic Properties Using The SCF Density

 **********************************************************************

       Atomic Center    1 is at   3.284212  0.208371 -0.000013
       Atomic Center    2 is at   2.666842  1.452834 -0.000053
       Atomic Center    3 is at   1.251298  1.445283 -0.000053
       Atomic Center    4 is at   0.687383  0.186939 -0.000014
       Atomic Center    5 is at   1.991690 -1.094224  0.000028
       Atomic Center    6 is at   3.468172  2.588663 -0.000088
       Atomic Center    7 is at   0.652138  2.342194 -0.000082
       Atomic Center    8 is at   4.667628 -0.104054 -0.000003
       Atomic Center    9 is at   5.285063 -1.348107  0.000036
       Atomic Center   10 is at   6.701220 -1.340082  0.000036
       Atomic Center   11 is at   7.264147 -0.082164 -0.000004
       Atomic Center   12 is at   5.960284  1.198663 -0.000045
       Atomic Center   13 is at   4.484394 -2.484468  0.000072
       Atomic Center   14 is at   7.300607 -2.236828  0.000063
       Atomic Center   15 is at   2.829632  3.894483 -0.000132
       Atomic Center   16 is at   2.219037  4.031447  0.894476
       Atomic Center   17 is at   2.219039  4.031388 -0.894751
       Atomic Center   18 is at   3.646024  4.608571 -0.000155
       Atomic Center   19 is at   5.123369 -3.790001  0.000113
       Atomic Center   20 is at   4.307215 -4.504377  0.000136
       Atomic Center   21 is at   5.734002 -3.926822 -0.894499
       Atomic Center   22 is at   5.734002 -3.926765  0.894734
       Atomic Center   23 is at  11.235430  0.312857 -0.000005
       Atomic Center   24 is at  10.621997  1.555312 -0.000055
       Atomic Center   25 is at   9.203697  1.549351 -0.000062
       Atomic Center   26 is at   8.640413  0.292504 -0.000015
       Atomic Center   27 is at   9.943876 -0.988423  0.000032
       Atomic Center   28 is at  11.423196  2.691591 -0.000103
       Atomic Center   29 is at   8.605866  2.447114 -0.000100
       Atomic Center   30 is at  12.624259 -0.005462  0.000016
       Atomic Center   31 is at  13.234160 -1.247965  0.000067
       Atomic Center   32 is at  14.664090 -1.234449  0.000077
       Atomic Center   33 is at  15.190030  0.021145  0.000033
       Atomic Center   34 is at  13.921097  1.294313 -0.000022
       Atomic Center   35 is at  12.436177 -2.387939  0.000108
       Atomic Center   36 is at  15.271927 -2.125323  0.000115
       Atomic Center   37 is at  10.785827  3.997851 -0.000039
       Atomic Center   38 is at  10.175429  4.135919  0.894608
       Atomic Center   39 is at  10.175377  4.135982 -0.894640
       Atomic Center   40 is at  11.603165  4.710853 -0.000040
       Atomic Center   41 is at  13.078346 -3.690919  0.000106
       Atomic Center   42 is at  12.264403 -4.407929  0.000118
       Atomic Center   43 is at  13.689253 -3.827667 -0.894581
       Atomic Center   44 is at  13.689269 -3.827661  0.894783
       Atomic Center   45 is at  16.224115  0.314538  0.000029
       Atomic Center   46 is at -12.624259  0.005465  0.000010
       Atomic Center   47 is at -13.234160  1.247968 -0.000019
       Atomic Center   48 is at -14.664089  1.234452 -0.000010
       Atomic Center   49 is at -15.190030 -0.021140  0.000027
       Atomic Center   50 is at -13.921098 -1.294310  0.000054
       Atomic Center   51 is at -12.436177  2.387941 -0.000055
       Atomic Center   52 is at -15.271926  2.125326 -0.000030
       Atomic Center   53 is at -11.235430 -0.312855  0.000010
       Atomic Center   54 is at -10.622000 -1.555310  0.000039
       Atomic Center   55 is at  -9.203700 -1.549351  0.000030
       Atomic Center   56 is at  -8.640414 -0.292503 -0.000007
       Atomic Center   57 is at  -9.943876  0.988423 -0.000032
       Atomic Center   58 is at -11.423199 -2.691588  0.000074
       Atomic Center   59 is at  -8.605869 -2.447114  0.000049
       Atomic Center   60 is at -13.078346  3.690921 -0.000087
       Atomic Center   61 is at -13.689256  3.827691  0.894594
       Atomic Center   62 is at -13.689266  3.827641 -0.894769
       Atomic Center   63 is at -12.264403  4.407930 -0.000112
       Atomic Center   64 is at -10.785829 -3.997849  0.000104
       Atomic Center   65 is at -11.603167 -4.710851  0.000128
       Atomic Center   66 is at -10.175410 -4.135971 -0.894519
       Atomic Center   67 is at -10.175399 -4.135924  0.894727
       Atomic Center   68 is at -16.224113 -0.314534  0.000041
       Atomic Center   69 is at  -4.667628  0.104051 -0.000026
       Atomic Center   70 is at  -5.285063  1.348104 -0.000068
       Atomic Center   71 is at  -6.701220  1.340080 -0.000069
       Atomic Center   72 is at  -7.264148  0.082163 -0.000025
       Atomic Center   73 is at  -5.960286 -1.198666  0.000006
       Atomic Center   74 is at  -4.484392  2.484464 -0.000113
       Atomic Center   75 is at  -7.300607  2.236827 -0.000099
       Atomic Center   76 is at  -3.284212 -0.208372 -0.000010
       Atomic Center   77 is at  -2.666841 -1.452837  0.000035
       Atomic Center   78 is at  -1.251297 -1.445282  0.000039
       Atomic Center   79 is at  -0.687386 -0.186938 -0.000004
       Atomic Center   80 is at  -1.991690  1.094222 -0.000044
       Atomic Center   81 is at  -3.468172 -2.588667  0.000074
       Atomic Center   82 is at  -0.652133 -2.342190  0.000072
       Atomic Center   83 is at  -5.123364  3.789998 -0.000043
       Atomic Center   84 is at  -5.733969  3.926758  0.894597
       Atomic Center   85 is at  -5.734023  3.926827 -0.894636
       Atomic Center   86 is at  -4.307209  4.504372 -0.000042
       Atomic Center   87 is at  -2.829628 -3.894486  0.000073
       Atomic Center   88 is at  -3.646017 -4.608577  0.000083
       Atomic Center   89 is at  -2.219040 -4.031422 -0.894546
       Atomic Center   90 is at  -2.219026 -4.031416  0.894682
   51344 points will be used for fitting atomic charges
 Fitting point charges to electrostatic potential
 Charges from ESP fit, RMS=   0.00443 RRMS=   0.26597:
 ESP charges:
               1
     1  C    0.028534
     2  C    0.265867
     3  C   -0.339647
     4  C    0.111981
     5  S   -0.231386
     6  O   -0.272271
     7  H    0.243897
     8  C   -0.019955
     9  C    0.313280
    10  C   -0.383915
    11  C    0.134215
    12  S   -0.228796
    13  O   -0.279411
    14  H    0.253462
    15  C    0.069027
    16  H    0.028509
    17  H    0.028431
    18  H    0.078703
    19  C    0.048992
    20  H    0.084058
    21  H    0.034510
    22  H    0.034399
    23  C   -0.012590
    24  C    0.369868
    25  C   -0.387853
    26  C    0.112631
    27  S   -0.220194
    28  O   -0.382850
    29  H    0.254690
    30  C   -0.085600
    31  C    0.371210
    32  C   -0.300290
    33  C   -0.135913
    34  S   -0.070421
    35  O   -0.293988
    36  H    0.157798
    37  C    0.178725
    38  H    0.004967
    39  H    0.004972
    40  H    0.053563
    41  C    0.036461
    42  H    0.082905
    43  H    0.044517
    44  H    0.044531
    45  H    0.170383
    46  C   -0.085583
    47  C    0.371213
    48  C   -0.300286
    49  C   -0.135920
    50  S   -0.070421
    51  O   -0.294020
    52  H    0.157799
    53  C   -0.012632
    54  C    0.369892
    55  C   -0.387874
    56  C    0.112619
    57  S   -0.220144
    58  O   -0.382854
    59  H    0.254705
    60  C    0.036541
    61  H    0.044501
    62  H    0.044502
    63  H    0.082882
    64  C    0.178725
    65  H    0.053564
    66  H    0.004964
    67  H    0.004972
    68  H    0.170385
    69  C   -0.019907
    70  C    0.313124
    71  C   -0.383780
    72  C    0.134211
    73  S   -0.228813
    74  O   -0.279204
    75  H    0.253332
    76  C    0.028472
    77  C    0.265812
    78  C   -0.339535
    79  C    0.111876
    80  S   -0.231352
    81  O   -0.272097
    82  H    0.243867
    83  C    0.048509
    84  H    0.034637
    85  H    0.034639
    86  H    0.084115
    87  C    0.068520
    88  H    0.078775
    89  H    0.028630
    90  H    0.028633
 Sum of ESP charges =   0.00000
 ESP charges with hydrogens summed into heavy atoms:
               1
     1  C    0.028534
     2  C    0.265867
     3  C   -0.095750
     4  C    0.111981
     5  S   -0.231386
     6  O   -0.272271
     8  C   -0.019955
     9  C    0.313280
    10  C   -0.130453
    11  C    0.134215
    12  S   -0.228796
    13  O   -0.279411
    15  C    0.204669
    19  C    0.201959
    23  C   -0.012590
    24  C    0.369868
    25  C   -0.133163
    26  C    0.112631
    27  S   -0.220194
    28  O   -0.382850
    30  C   -0.085600
    31  C    0.371210
    32  C   -0.142492
    33  C    0.034470
    34  S   -0.070421
    35  O   -0.293988
    37  C    0.242226
    41  C    0.208415
    46  C   -0.085583
    47  C    0.371213
    48  C   -0.142487
    49  C    0.034465
    50  S   -0.070421
    51  O   -0.294020
    53  C   -0.012632
    54  C    0.369892
    55  C   -0.133168
    56  C    0.112619
    57  S   -0.220144
    58  O   -0.382854
    60  C    0.208427
    64  C    0.242225
    69  C   -0.019907
    70  C    0.313124
    71  C   -0.130448
    72  C    0.134211
    73  S   -0.228813
    74  O   -0.279204
    76  C    0.028472
    77  C    0.265812
    78  C   -0.095668
    79  C    0.111876
    80  S   -0.231352
    81  O   -0.272097
    83  C    0.201900
    87  C    0.204558
 Charge=   0.00000 Dipole=    -0.0001     0.0002     0.0001 Tot=     0.0002
 -----------------------------------------------------------------

              Electrostatic Properties (Atomic Units)

 -----------------------------------------------------------------
    Center     Electric         -------- Electric Field --------
               Potential          X             Y             Z
 -----------------------------------------------------------------
    1 Atom    -14.730458
    2 Atom    -14.705879
    3 Atom    -14.767244
    4 Atom    -14.729885
    5 Atom    -59.220377
    6 Atom    -22.338133
    7 Atom     -1.080776
    8 Atom    -14.730612
    9 Atom    -14.705896
   10 Atom    -14.767286
   11 Atom    -14.729850
   12 Atom    -59.220430
   13 Atom    -22.337999
   14 Atom     -1.080763
   15 Atom    -14.716153
   16 Atom     -1.091070
   17 Atom     -1.091070
   18 Atom     -1.090698
   19 Atom    -14.715922
   20 Atom     -1.090461
   21 Atom     -1.090852
   22 Atom     -1.090852
   23 Atom    -14.731900
   24 Atom    -14.707451
   25 Atom    -14.767989
   26 Atom    -14.730410
   27 Atom    -59.220678
   28 Atom    -22.340381
   29 Atom     -1.081515
   30 Atom    -14.732848
   31 Atom    -14.707691
   32 Atom    -14.766164
   33 Atom    -14.747255
   34 Atom    -59.218641
   35 Atom    -22.338335
   36 Atom     -1.080390
   37 Atom    -14.717907
   38 Atom     -1.092789
   39 Atom     -1.092789
   40 Atom     -1.092658
   41 Atom    -14.714804
   42 Atom     -1.089585
   43 Atom     -1.089778
   44 Atom     -1.089778
   45 Atom     -1.074667
   46 Atom    -14.732848
   47 Atom    -14.707691
   48 Atom    -14.766164
   49 Atom    -14.747255
   50 Atom    -59.218641
   51 Atom    -22.338335
   52 Atom     -1.080390
   53 Atom    -14.731900
   54 Atom    -14.707451
   55 Atom    -14.767989
   56 Atom    -14.730410
   57 Atom    -59.220678
   58 Atom    -22.340381
   59 Atom     -1.081515
   60 Atom    -14.714805
   61 Atom     -1.089778
   62 Atom     -1.089778
   63 Atom     -1.089585
   64 Atom    -14.717907
   65 Atom     -1.092658
   66 Atom     -1.092789
   67 Atom     -1.092789
   68 Atom     -1.074668
   69 Atom    -14.730612
   70 Atom    -14.705896
   71 Atom    -14.767286
   72 Atom    -14.729850
   73 Atom    -59.220430
   74 Atom    -22.337999
   75 Atom     -1.080763
   76 Atom    -14.730458
   77 Atom    -14.705879
   78 Atom    -14.767244
   79 Atom    -14.729885
   80 Atom    -59.220377
   81 Atom    -22.338133
   82 Atom     -1.080776
   83 Atom    -14.715922
   84 Atom     -1.090851
   85 Atom     -1.090852
   86 Atom     -1.090461
   87 Atom    -14.716153
   88 Atom     -1.090698
   89 Atom     -1.091070
   90 Atom     -1.091070
 -----------------------------------------------------------------
 Leave Link  602 at Fri Jan 10 17:05:31 2020, MaxMem=  6710886400 cpu:              37.5 elap:               4.7
 (Enter /apps/gaussian/g16-a03/l9999.exe)
 1\1\GINC-CX1-141-15-2\FOpt\RB3LYP\6-311G\C40H34O8S8\NS5018\10-Jan-2020
 \0\\#p opt pop=ChelpG b3lyp/6-311g\\OBT_4m_opt.gjf\\0,1\C,4.7258227912
 ,0.0795621618,0.0000179127\C,5.3748578737,1.3078081502,0.0000572364\C,
 6.7897443203,1.2640109277,0.0000577116\C,7.3212511562,-0.0083605536,0.
 0000189444\S,5.9845654334,-1.2557040717,-0.000023025\O,4.6028753487,2.
 4637843648,0.0000925415\H,7.4116746389,2.1452848851,0.000086227\C,3.33
 48605001,-0.1973344919,0.000007968\C,2.6857707217,-1.425168702,-0.0000
 312954\C,1.2702832818,-1.3808824843,-0.0000309594\C,0.7397531044,-0.10
 89622495,0.0000083672\S,2.0759865692,1.1380566728,0.0000492616\O,3.457
 0784978,-2.5816600812,-0.000067072\H,0.6481295145,-2.2619863353,-0.000
 0586996\C,5.2746449814,3.7528249607,0.0001365651\H,5.8885474212,3.8741
 086266,-0.8944716646\H,5.8885436181,3.8740495112,0.8947554024\H,4.4768
 067616,4.4875841841,0.0001591269\C,2.7848814711,-3.870403056,-0.000108
 526\H,3.5824748409,-4.6054437878,-0.0001312024\H,2.1709450516,-3.99154
 25384,0.8945031981\H,2.1709465159,-3.9914857513,-0.8947289402\C,-3.220
 1119917,0.3876228964,0.0000095685\C,-2.5750647854,1.6139620083,0.00005
 97542\C,-1.1573827846,1.5716846667,0.0000666809\C,-0.6264675694,0.3008
 251203,0.0000198903\S,-1.9623041277,-0.9463031296,-0.0000270353\O,-3.3
 469038885,2.7703847453,0.000107938\H,-0.5367581254,2.4538441988,0.0001
 044082\C,-4.6166372678,0.1049729656,-0.0000110067\C,-5.2581550106,-1.1
 215055869,-0.00006191\C,-6.687269899,-1.0713765479,-0.0000723922\C,-7.
 1808857172,0.1972730827,-0.000028579\S,-5.8797666418,1.4375300334,0.00
 00269336\O,-4.4896258998,-2.2815394946,-0.0001034327\H,-7.3177205539,-
 1.9463933347,-0.0001107047\C,-2.6762945743,4.0598955722,0.0000433015\H
 ,-2.0625610824,4.1822871964,-0.8946031817\H,-2.0625070849,4.182348977,
 0.8946441332\H,-3.4751060461,4.7935936106,0.0000441376\C,-5.1649497473
 ,-3.5676477242,-0.0001017711\H,-4.369634842,-4.3052661142,-0.000113144
 \H,-5.7791582691,-3.6887072882,0.8945852966\H,-5.7791738661,-3.6887011
 467,-0.8947785957\H,-8.2071179573,0.5170495445,-0.0000246897\C,20.6238
 813855,-0.5306497121,-0.0000057714\C,21.2653990986,0.6958280495,0.0000
 237255\C,22.6945135984,0.6456995184,0.0000144974\C,23.1881291884,-0.62
 29487231,-0.0000223665\S,21.8870107061,-1.8632067926,-0.0000490333\O,2
 0.4968695448,1.8558614518,0.000059157\H,23.3249634084,1.5207166992,0.0
 00034699\C,19.2273565069,-0.8133010128,-0.0000054858\C,18.5823110241,-
 2.0396409382,-0.0000344197\C,17.164628819,-1.9973643684,-0.0000251807\
 C,16.6337125208,-0.7265049439,0.000011172\S,17.969547929,0.520623716,0
 .0000370364\O,19.3541507487,-3.1960629405,-0.0000692699\H,16.544005387
 4,-2.8795245869,-0.0000443846\C,21.172193712,3.1419695423,0.0000918158
 \H,21.7864053251,3.2630508382,-0.8945891992\H,21.7864140988,3.26300078
 35,0.8947735761\H,20.3768783353,3.8795870101,0.0001163548\C,18.6835401
 767,-4.485574045,-0.0000994002\H,19.4823521746,-5.2192721571,-0.000123
 2986\H,18.0697844751,-4.6080191576,0.89452381\H,18.0697742154,-4.60797
 20314,-0.8947220204\H,24.2143599823,-0.9427257571,-0.0000365483\C,12.6
 723834061,-0.2283486365,0.000030238\C,13.3214731923,0.9994855496,0.000
 0728468\C,14.7369604006,0.955200899,0.0000739573\C,15.2674915961,-0.31
 67186662,0.000029469\S,13.9312585087,-1.5637395123,-0.0000011536\O,12.
 5501634502,2.1559758436,0.0001176879\H,15.3591138243,1.8363052332,0.00
 01039854\C,11.2814213272,-0.5052438656,0.0000143731\C,10.6323851104,-1
 .7334916939,-0.0000302906\C,9.2174992429,-1.6896908521,-0.0000347809\C
 ,8.6859954673,-0.4173187134,0.0000084064\S,10.0226785996,0.8300214088,
 0.0000488174\O,11.4043675526,-2.8894686963,-0.0000691066\H,8.595564393
 9,-2.5709615941,-0.0000671379\C,13.2223569303,3.4447198151,0.000047888
 \H,13.836263987,3.5657989529,-0.8945928691\H,13.8363201445,3.565866870
 3,0.8946407631\H,12.4247627034,4.1797589622,0.0000470466\C,10.73259503
 58,-4.178507687,-0.0000681987\H,11.5304305471,-4.9132703165,-0.0000785
 714\H,10.1187003801,-4.2997635291,0.8945502353\H,10.1186868072,-4.2997
 575071,-0.8946777491\\Version=ES64L-G16RevA.03\State=1-A\HF=-5331.6837
 013\RMSD=3.541e-09\RMSF=1.535e-05\Dipole=0.0000041,0.0000041,-0.000075
 8\Quadrupole=19.4431588,32.106326,-51.5494848,35.6034199,0.0014893,0.0
 01368\PG=C01 [X(C40H34O8S8)]\\@


 EDUCATION WITHOUT COMMON SENSE IS A LOAD OF BOOKS ON THE BACK OF AN ASS.
 Job cpu time:       0 days  4 hours 17 minutes 42.1 seconds.
 Elapsed time:       0 days  0 hours 32 minutes 19.5 seconds.
 File lengths (MBytes):  RWF=    495 Int=      0 D2E=      0 Chk=     62 Scr=      1
 Normal termination of Gaussian 16 at Fri Jan 10 17:05:31 2020.
