 Entering Gaussian System, Link 0=g16
 Input=OBT_4m_0sc_opt_pop.gjf
 Output=OBT_4m_0sc_opt_pop.log
 Initial command:
 /apps/gaussian/g16-a03/l1.exe "/tmp/pbs.979229.pbs/Gau-4071.inp" -scrdir="/tmp/pbs.979229.pbs/"
 Entering Link 1 = /apps/gaussian/g16-a03/l1.exe PID=      4072.
  
 Copyright (c) 1988,1990,1992,1993,1995,1998,2003,2009,2016,
            Gaussian, Inc.  All Rights Reserved.
  
 This is part of the Gaussian(R) 16 program.  It is based on
 the Gaussian(R) 09 system (copyright 2009, Gaussian, Inc.),
 the Gaussian(R) 03 system (copyright 2003, Gaussian, Inc.),
 the Gaussian(R) 98 system (copyright 1998, Gaussian, Inc.),
 the Gaussian(R) 94 system (copyright 1995, Gaussian, Inc.),
 the Gaussian 92(TM) system (copyright 1992, Gaussian, Inc.),
 the Gaussian 90(TM) system (copyright 1990, Gaussian, Inc.),
 the Gaussian 88(TM) system (copyright 1988, Gaussian, Inc.),
 the Gaussian 86(TM) system (copyright 1986, Carnegie Mellon
 University), and the Gaussian 82(TM) system (copyright 1983,
 Carnegie Mellon University). Gaussian is a federally registered
 trademark of Gaussian, Inc.
  
 This software contains proprietary and confidential information,
 including trade secrets, belonging to Gaussian, Inc.
  
 This software is provided under written license and may be
 used, copied, transmitted, or stored only in accord with that
 written license.
  
 The following legend is applicable only to US Government
 contracts under FAR:
  
                    RESTRICTED RIGHTS LEGEND
  
 Use, reproduction and disclosure by the US Government is
 subject to restrictions as set forth in subparagraphs (a)
 and (c) of the Commercial Computer Software - Restricted
 Rights clause in FAR 52.227-19.
  
 Gaussian, Inc.
 340 Quinnipiac St., Bldg. 40, Wallingford CT 06492
  
  
 ---------------------------------------------------------------
 Warning -- This program may not be used in any manner that
 competes with the business of Gaussian, Inc. or will provide
 assistance to any competitor of Gaussian, Inc.  The licensee
 of this program is prohibited from giving any competitor of
 Gaussian, Inc. access to this program.  By using this program,
 the user acknowledges that Gaussian, Inc. is engaged in the
 business of creating and licensing software in the field of
 computational chemistry and represents and warrants to the
 licensee that it is not a competitor of Gaussian, Inc. and that
 it will not use this program in any manner prohibited above.
 ---------------------------------------------------------------
  

 Cite this work as:
 Gaussian 16, Revision A.03,
 M. J. Frisch, G. W. Trucks, H. B. Schlegel, G. E. Scuseria, 
 M. A. Robb, J. R. Cheeseman, G. Scalmani, V. Barone, 
 G. A. Petersson, H. Nakatsuji, X. Li, M. Caricato, A. V. Marenich, 
 J. Bloino, B. G. Janesko, R. Gomperts, B. Mennucci, H. P. Hratchian, 
 J. V. Ortiz, A. F. Izmaylov, J. L. Sonnenberg, D. Williams-Young, 
 F. Ding, F. Lipparini, F. Egidi, J. Goings, B. Peng, A. Petrone, 
 T. Henderson, D. Ranasinghe, V. G. Zakrzewski, J. Gao, N. Rega, 
 G. Zheng, W. Liang, M. Hada, M. Ehara, K. Toyota, R. Fukuda, 
 J. Hasegawa, M. Ishida, T. Nakajima, Y. Honda, O. Kitao, H. Nakai, 
 T. Vreven, K. Throssell, J. A. Montgomery, Jr., J. E. Peralta, 
 F. Ogliaro, M. J. Bearpark, J. J. Heyd, E. N. Brothers, K. N. Kudin, 
 V. N. Staroverov, T. A. Keith, R. Kobayashi, J. Normand, 
 K. Raghavachari, A. P. Rendell, J. C. Burant, S. S. Iyengar, 
 J. Tomasi, M. Cossi, J. M. Millam, M. Klene, C. Adamo, R. Cammi, 
 J. W. Ochterski, R. L. Martin, K. Morokuma, O. Farkas, 
 J. B. Foresman, and D. J. Fox, Gaussian, Inc., Wallingford CT, 2016.
 
 ******************************************
 Gaussian 16:  ES64L-G16RevA.03 25-Dec-2016
                20-Jan-2020 
 ******************************************
 %mem=50GB
 %nprocshared=8
 Will use up to    8 processors via shared memory.
 -----------------------------------
 #p opt b3lyp/6-311g(d,p) pop=chelpg
 -----------------------------------
 1/18=20,19=15,26=3,38=1/1,3;
 2/9=110,12=2,17=6,18=5,40=1/2;
 3/5=4,6=6,7=101,11=2,25=1,30=1,71=1,74=-5/1,2,3;
 4//1;
 5/5=2,38=5/2;
 6/7=2,8=2,9=2,10=2,15=8,20=3,28=1/1,2;
 7//1,2,3,16;
 1/18=20,19=15,26=3/3(2);
 2/9=110/2;
 99//99;
 2/9=110/2;
 3/5=4,6=6,7=101,11=2,25=1,30=1,71=1,74=-5/1,2,3;
 4/5=5,16=3,69=1/1;
 5/5=2,38=5/2;
 7//1,2,3,16;
 1/18=20,19=15,26=3/3(-5);
 2/9=110/2;
 6/7=2,8=2,9=2,10=2,15=8,19=2,20=3,28=1/1,2;
 99/9=1/99;
 Leave Link    1 at Mon Jan 20 17:37:06 2020, MaxMem=  6710886400 cpu:               0.3 elap:               0.1
 (Enter /apps/gaussian/g16-a03/l101.exe)
 ----------------------
 O3G_4m_0sc_opt_pop.gjf
 ----------------------
 Symbolic Z-matrix:
 Charge =  0 Multiplicity = 1
 C                     3.284     0.208     0. 
 C                     2.667     1.453     0. 
 C                     1.251     1.445     0. 
 C                     0.687     0.187     0. 
 S                     1.992    -1.094     0. 
 O                     3.468     2.589     0. 
 H                     0.652     2.342     0. 
 C                     4.668    -0.104     0. 
 C                     5.285    -1.348     0. 
 C                     6.701    -1.34      0. 
 C                     7.264    -0.082     0. 
 S                     5.96      1.199     0. 
 O                     4.484    -2.484     0. 
 H                     7.301    -2.237     0. 
 C                     5.123    -3.79      0. 
 H                     4.307    -4.504     0. 
 H                     5.734    -3.927    -0.894 
 H                     5.734    -3.927     0.895 
 C                     11.235    0.313     0. 
 C                     10.622    1.555     0. 
 C                     9.204     1.549     0. 
 C                     8.64      0.293     0. 
 S                     9.944    -0.988     0. 
 O                     11.423    2.692     0. 
 H                     8.606     2.447     0. 
 C                     12.624   -0.005     0. 
 C                     13.234   -1.248     0. 
 C                     14.664   -1.234     0. 
 C                     15.19     0.021     0. 
 S                     13.921    1.294     0. 
 O                     12.436   -2.388     0. 
 H                     15.272   -2.125     0. 
 C                     10.786    3.998     0. 
 H                     10.175    4.136     0.895 
 H                     10.175    4.136    -0.895 
 H                     11.603    4.711     0. 
 C                     13.078   -3.691     0. 
 H                     12.264   -4.408     0. 
 H                     13.689   -3.828    -0.895 
 H                     13.689   -3.828     0.895 
 H                     16.224    0.315     0. 
 C                    -12.624    0.005     0. 
 C                    -13.234    1.248     0. 
 C                    -14.664    1.234     0. 
 C                    -15.19    -0.021     0. 
 S                    -13.921   -1.294     0. 
 O                    -12.436    2.388     0. 
 H                    -15.272    2.125     0. 
 C                    -11.235   -0.313     0. 
 C                    -10.622   -1.555     0. 
 C                    -9.204    -1.549     0. 
 C                    -8.64     -0.293     0. 
 S                    -9.944     0.988     0. 
 O                    -11.423   -2.692     0. 
 H                    -8.606    -2.447     0. 
 C                    -13.078    3.691     0. 
 H                    -13.689    3.828     0.895 
 H                    -13.689    3.828    -0.895 
 H                    -12.264    4.408     0. 
 C                    -10.786   -3.998     0. 
 H                    -11.603   -4.711     0. 
 H                    -10.175   -4.136    -0.895 
 H                    -10.175   -4.136     0.895 
 H                    -16.224   -0.315     0. 
 C                    -4.668     0.104     0. 
 C                    -5.285     1.348     0. 
 C                    -6.701     1.34      0. 
 C                    -7.264     0.082     0. 
 S                    -5.96     -1.199     0. 
 O                    -4.484     2.484     0. 
 H                    -7.301     2.237     0. 
 C                    -3.284    -0.208     0. 
 C                    -2.667    -1.453     0. 
 C                    -1.251    -1.445     0. 
 C                    -0.687    -0.187     0. 
 S                    -1.992     1.094     0. 
 O                    -3.468    -2.589     0. 
 H                    -0.652    -2.342     0. 
 C                    -5.123     3.79      0. 
 H                    -5.734     3.927     0.895 
 H                    -5.734     3.927    -0.895 
 H                    -4.307     4.504     0. 
 C                     2.56737   3.69975   0. 
 H                     1.95226   3.66017  -0.87463 
 H                     1.94962   3.65804   0.87267 
 C                     3.37184   5.01292   0.00282 
 H                     3.9872    5.05234   0.87727 
 H                     3.98933   5.05478  -0.87003 
 C                     2.40192   6.20911   0.0033 
 H                     1.78588   6.16913  -0.87065 
 H                     1.78511   6.1678    0.87665 
 C                     3.20639   7.52228   0.00466 
 H                     3.82303   7.56369  -0.86881 
 H                     3.82261   7.56215   0.87849 
 C                     2.23648   8.71847   0.00548 
 H                     1.62016   8.67851  -0.86828 
 H                     1.61995   8.67714   0.87902 
 C                     3.04095   10.03164   0.00661 
 H                     3.6576    10.0729  -0.86686 
 H                     3.65716   10.07166   0.88044 
 C                     2.07104   11.22783   0.00721 
 H                     1.45439   11.18657   0.88068 
 H                     1.45483   11.1878  -0.86662 
 C                     2.87551   12.541    0.00834 
 H                     3.49212   12.58227  -0.86515 
 H                     3.49174   12.58101   0.88215 
 C                     1.90559   13.73719   0.00899 
 H                     1.28899   13.69593   0.88249 
 H                     1.28934   13.69716  -0.86481 
 C                     2.71006   15.05036   0.01008 
 H                     3.32665   15.09163  -0.86343 
 H                     2.03616   15.88148   0.01055 
 H                     3.32633   15.09038   0.88387 
 C                    -2.42351  -3.5657    0. 
 H                    -1.8185   -3.44089  -0.87366 
 H                    -1.81847  -3.44087   0.87364 
 C                    -3.04023  -4.97681   0.00003 
 H                    -3.64366  -5.10231   0.87469 
 H                    -3.64685  -5.10095  -0.87261 
 C                    -1.9154   -6.02864  -0.00284 
 H                    -1.31174  -5.90289  -0.87731 
 H                    -1.30901  -5.90475   0.86999 
 C                    -2.53212  -7.43975  -0.00338 
 H                    -3.13797  -7.56388  -0.87656 
 H                    -3.13633  -7.56526   0.87074 
 C                    -1.40729  -8.49158  -0.00526 
 H                    -0.80293  -8.36591  -0.87925 
 H                    -0.8016   -8.36762   0.86805 
 C                    -2.02401  -9.9027   -0.00618 
 H                    -2.62955  -10.02672  -0.87958 
 H                    -2.62852  -10.02831   0.86772 
 C                    -0.89917  -10.95452  -0.00779 
 H                    -0.29462  -10.82886  -0.88165 
 H                    -0.29367  -10.83054   0.86565 
 C                    -1.5159   -12.36564  -0.00881 
 H                    -2.12135  -12.48964  -0.88229 
 H                    -2.1205   -12.49127   0.86502 
 C                    -0.39106  -13.41746  -0.01034 
 H                     0.21355  -13.29181  -0.88416 
 H                     0.21437  -13.29348   0.86314 
 C                    -1.00779  -14.82858  -0.0114 
 H                    -1.6132   -14.95257  -0.8849 
 H                    -0.22624  -15.55939  -0.01243 
 H                    -1.61242  -14.95422   0.8624 
 
 ITRead=  0  0  0  0  0  0  0  0  0  0  0  0  0  0  0  0  0  0  0  0
 ITRead=  0  0  0  0  0  0  0  0  0  0  0  0  0  0  0  0  0  0  0  0
 ITRead=  0  0  0  0  0  0  0  0  0  0  0  0  0  0  0  0  0  0  0  0
 ITRead=  0  0  0  0  0  0  0  0  0  0  0  0  0  0  0  0  0  0  0  0
 ITRead=  0  0  0  0  0  0  0  0  0  0  0  0  0  0  0  0  0  0  0  0
 ITRead=  0  0  0  0  0  0  0  0  0  0  0  0  0  0  0  0  0  0  0  0
 ITRead=  0  0  0  0  0  0  0  0  0  0  0  0  0  0  0  0  0  0  0  0
 ITRead=  0  0  0  0
 MicOpt= -1 -1 -1 -1 -1 -1 -1 -1 -1 -1 -1 -1 -1 -1 -1 -1 -1 -1 -1 -1
 MicOpt= -1 -1 -1 -1 -1 -1 -1 -1 -1 -1 -1 -1 -1 -1 -1 -1 -1 -1 -1 -1
 MicOpt= -1 -1 -1 -1 -1 -1 -1 -1 -1 -1 -1 -1 -1 -1 -1 -1 -1 -1 -1 -1
 MicOpt= -1 -1 -1 -1 -1 -1 -1 -1 -1 -1 -1 -1 -1 -1 -1 -1 -1 -1 -1 -1
 MicOpt= -1 -1 -1 -1 -1 -1 -1 -1 -1 -1 -1 -1 -1 -1 -1 -1 -1 -1 -1 -1
 MicOpt= -1 -1 -1 -1 -1 -1 -1 -1 -1 -1 -1 -1 -1 -1 -1 -1 -1 -1 -1 -1
 MicOpt= -1 -1 -1 -1 -1 -1 -1 -1 -1 -1 -1 -1 -1 -1 -1 -1 -1 -1 -1 -1
 MicOpt= -1 -1 -1 -1
 NAtoms=    144 NQM=      144 NQMF=       0 NMMI=      0 NMMIF=      0
                NMic=       0 NMicF=      0.
                    Isotopes and Nuclear Properties:
 (Nuclear quadrupole moments (NQMom) in fm**2, nuclear magnetic moments (NMagM)
  in nuclear magnetons)

  Atom         1           2           3           4           5           6           7           8           9          10
 IAtWgt=          12          12          12          12          32          16           1          12          12          12
 AtmWgt=  12.0000000  12.0000000  12.0000000  12.0000000  31.9720718  15.9949146   1.0078250  12.0000000  12.0000000  12.0000000
 NucSpn=           0           0           0           0           0           0           1           0           0           0
 AtZEff=  -0.0000000  -0.0000000  -0.0000000  -0.0000000  -0.0000000  -0.0000000  -0.0000000  -0.0000000  -0.0000000  -0.0000000
 NQMom=    0.0000000   0.0000000   0.0000000   0.0000000   0.0000000   0.0000000   0.0000000   0.0000000   0.0000000   0.0000000
 NMagM=    0.0000000   0.0000000   0.0000000   0.0000000   0.0000000   0.0000000   2.7928460   0.0000000   0.0000000   0.0000000
 AtZNuc=   6.0000000   6.0000000   6.0000000   6.0000000  16.0000000   8.0000000   1.0000000   6.0000000   6.0000000   6.0000000

  Atom        11          12          13          14          15          16          17          18          19          20
 IAtWgt=          12          32          16           1          12           1           1           1          12          12
 AtmWgt=  12.0000000  31.9720718  15.9949146   1.0078250  12.0000000   1.0078250   1.0078250   1.0078250  12.0000000  12.0000000
 NucSpn=           0           0           0           1           0           1           1           1           0           0
 AtZEff=  -0.0000000  -0.0000000  -0.0000000  -0.0000000  -0.0000000  -0.0000000  -0.0000000  -0.0000000  -0.0000000  -0.0000000
 NQMom=    0.0000000   0.0000000   0.0000000   0.0000000   0.0000000   0.0000000   0.0000000   0.0000000   0.0000000   0.0000000
 NMagM=    0.0000000   0.0000000   0.0000000   2.7928460   0.0000000   2.7928460   2.7928460   2.7928460   0.0000000   0.0000000
 AtZNuc=   6.0000000  16.0000000   8.0000000   1.0000000   6.0000000   1.0000000   1.0000000   1.0000000   6.0000000   6.0000000

  Atom        21          22          23          24          25          26          27          28          29          30
 IAtWgt=          12          12          32          16           1          12          12          12          12          32
 AtmWgt=  12.0000000  12.0000000  31.9720718  15.9949146   1.0078250  12.0000000  12.0000000  12.0000000  12.0000000  31.9720718
 NucSpn=           0           0           0           0           1           0           0           0           0           0
 AtZEff=  -0.0000000  -0.0000000  -0.0000000  -0.0000000  -0.0000000  -0.0000000  -0.0000000  -0.0000000  -0.0000000  -0.0000000
 NQMom=    0.0000000   0.0000000   0.0000000   0.0000000   0.0000000   0.0000000   0.0000000   0.0000000   0.0000000   0.0000000
 NMagM=    0.0000000   0.0000000   0.0000000   0.0000000   2.7928460   0.0000000   0.0000000   0.0000000   0.0000000   0.0000000
 AtZNuc=   6.0000000   6.0000000  16.0000000   8.0000000   1.0000000   6.0000000   6.0000000   6.0000000   6.0000000  16.0000000

  Atom        31          32          33          34          35          36          37          38          39          40
 IAtWgt=          16           1          12           1           1           1          12           1           1           1
 AtmWgt=  15.9949146   1.0078250  12.0000000   1.0078250   1.0078250   1.0078250  12.0000000   1.0078250   1.0078250   1.0078250
 NucSpn=           0           1           0           1           1           1           0           1           1           1
 AtZEff=  -0.0000000  -0.0000000  -0.0000000  -0.0000000  -0.0000000  -0.0000000  -0.0000000  -0.0000000  -0.0000000  -0.0000000
 NQMom=    0.0000000   0.0000000   0.0000000   0.0000000   0.0000000   0.0000000   0.0000000   0.0000000   0.0000000   0.0000000
 NMagM=    0.0000000   2.7928460   0.0000000   2.7928460   2.7928460   2.7928460   0.0000000   2.7928460   2.7928460   2.7928460
 AtZNuc=   8.0000000   1.0000000   6.0000000   1.0000000   1.0000000   1.0000000   6.0000000   1.0000000   1.0000000   1.0000000

  Atom        41          42          43          44          45          46          47          48          49          50
 IAtWgt=           1          12          12          12          12          32          16           1          12          12
 AtmWgt=   1.0078250  12.0000000  12.0000000  12.0000000  12.0000000  31.9720718  15.9949146   1.0078250  12.0000000  12.0000000
 NucSpn=           1           0           0           0           0           0           0           1           0           0
 AtZEff=  -0.0000000  -0.0000000  -0.0000000  -0.0000000  -0.0000000  -0.0000000  -0.0000000  -0.0000000  -0.0000000  -0.0000000
 NQMom=    0.0000000   0.0000000   0.0000000   0.0000000   0.0000000   0.0000000   0.0000000   0.0000000   0.0000000   0.0000000
 NMagM=    2.7928460   0.0000000   0.0000000   0.0000000   0.0000000   0.0000000   0.0000000   2.7928460   0.0000000   0.0000000
 AtZNuc=   1.0000000   6.0000000   6.0000000   6.0000000   6.0000000  16.0000000   8.0000000   1.0000000   6.0000000   6.0000000

  Atom        51          52          53          54          55          56          57          58          59          60
 IAtWgt=          12          12          32          16           1          12           1           1           1          12
 AtmWgt=  12.0000000  12.0000000  31.9720718  15.9949146   1.0078250  12.0000000   1.0078250   1.0078250   1.0078250  12.0000000
 NucSpn=           0           0           0           0           1           0           1           1           1           0
 AtZEff=  -0.0000000  -0.0000000  -0.0000000  -0.0000000  -0.0000000  -0.0000000  -0.0000000  -0.0000000  -0.0000000  -0.0000000
 NQMom=    0.0000000   0.0000000   0.0000000   0.0000000   0.0000000   0.0000000   0.0000000   0.0000000   0.0000000   0.0000000
 NMagM=    0.0000000   0.0000000   0.0000000   0.0000000   2.7928460   0.0000000   2.7928460   2.7928460   2.7928460   0.0000000
 AtZNuc=   6.0000000   6.0000000  16.0000000   8.0000000   1.0000000   6.0000000   1.0000000   1.0000000   1.0000000   6.0000000

  Atom        61          62          63          64          65          66          67          68          69          70
 IAtWgt=           1           1           1           1          12          12          12          12          32          16
 AtmWgt=   1.0078250   1.0078250   1.0078250   1.0078250  12.0000000  12.0000000  12.0000000  12.0000000  31.9720718  15.9949146
 NucSpn=           1           1           1           1           0           0           0           0           0           0
 AtZEff=  -0.0000000  -0.0000000  -0.0000000  -0.0000000  -0.0000000  -0.0000000  -0.0000000  -0.0000000  -0.0000000  -0.0000000
 NQMom=    0.0000000   0.0000000   0.0000000   0.0000000   0.0000000   0.0000000   0.0000000   0.0000000   0.0000000   0.0000000
 NMagM=    2.7928460   2.7928460   2.7928460   2.7928460   0.0000000   0.0000000   0.0000000   0.0000000   0.0000000   0.0000000
 AtZNuc=   1.0000000   1.0000000   1.0000000   1.0000000   6.0000000   6.0000000   6.0000000   6.0000000  16.0000000   8.0000000

  Atom        71          72          73          74          75          76          77          78          79          80
 IAtWgt=           1          12          12          12          12          32          16           1          12           1
 AtmWgt=   1.0078250  12.0000000  12.0000000  12.0000000  12.0000000  31.9720718  15.9949146   1.0078250  12.0000000   1.0078250
 NucSpn=           1           0           0           0           0           0           0           1           0           1
 AtZEff=  -0.0000000  -0.0000000  -0.0000000  -0.0000000  -0.0000000  -0.0000000  -0.0000000  -0.0000000  -0.0000000  -0.0000000
 NQMom=    0.0000000   0.0000000   0.0000000   0.0000000   0.0000000   0.0000000   0.0000000   0.0000000   0.0000000   0.0000000
 NMagM=    2.7928460   0.0000000   0.0000000   0.0000000   0.0000000   0.0000000   0.0000000   2.7928460   0.0000000   2.7928460
 AtZNuc=   1.0000000   6.0000000   6.0000000   6.0000000   6.0000000  16.0000000   8.0000000   1.0000000   6.0000000   1.0000000

  Atom        81          82          83          84          85          86          87          88          89          90
 IAtWgt=           1           1          12           1           1          12           1           1          12           1
 AtmWgt=   1.0078250   1.0078250  12.0000000   1.0078250   1.0078250  12.0000000   1.0078250   1.0078250  12.0000000   1.0078250
 NucSpn=           1           1           0           1           1           0           1           1           0           1
 AtZEff=  -0.0000000  -0.0000000  -0.0000000  -0.0000000  -0.0000000  -0.0000000  -0.0000000  -0.0000000  -0.0000000  -0.0000000
 NQMom=    0.0000000   0.0000000   0.0000000   0.0000000   0.0000000   0.0000000   0.0000000   0.0000000   0.0000000   0.0000000
 NMagM=    2.7928460   2.7928460   0.0000000   2.7928460   2.7928460   0.0000000   2.7928460   2.7928460   0.0000000   2.7928460
 AtZNuc=   1.0000000   1.0000000   6.0000000   1.0000000   1.0000000   6.0000000   1.0000000   1.0000000   6.0000000   1.0000000

  Atom        91          92          93          94          95          96          97          98          99         100
 IAtWgt=           1          12           1           1          12           1           1          12           1           1
 AtmWgt=   1.0078250  12.0000000   1.0078250   1.0078250  12.0000000   1.0078250   1.0078250  12.0000000   1.0078250   1.0078250
 NucSpn=           1           0           1           1           0           1           1           0           1           1
 AtZEff=  -0.0000000  -0.0000000  -0.0000000  -0.0000000  -0.0000000  -0.0000000  -0.0000000  -0.0000000  -0.0000000  -0.0000000
 NQMom=    0.0000000   0.0000000   0.0000000   0.0000000   0.0000000   0.0000000   0.0000000   0.0000000   0.0000000   0.0000000
 NMagM=    2.7928460   0.0000000   2.7928460   2.7928460   0.0000000   2.7928460   2.7928460   0.0000000   2.7928460   2.7928460
 AtZNuc=   1.0000000   6.0000000   1.0000000   1.0000000   6.0000000   1.0000000   1.0000000   6.0000000   1.0000000   1.0000000

  Atom       101         102         103         104         105         106         107         108         109         110
 IAtWgt=          12           1           1          12           1           1          12           1           1          12
 AtmWgt=  12.0000000   1.0078250   1.0078250  12.0000000   1.0078250   1.0078250  12.0000000   1.0078250   1.0078250  12.0000000
 NucSpn=           0           1           1           0           1           1           0           1           1           0
 AtZEff=  -0.0000000  -0.0000000  -0.0000000  -0.0000000  -0.0000000  -0.0000000  -0.0000000  -0.0000000  -0.0000000  -0.0000000
 NQMom=    0.0000000   0.0000000   0.0000000   0.0000000   0.0000000   0.0000000   0.0000000   0.0000000   0.0000000   0.0000000
 NMagM=    0.0000000   2.7928460   2.7928460   0.0000000   2.7928460   2.7928460   0.0000000   2.7928460   2.7928460   0.0000000
 AtZNuc=   6.0000000   1.0000000   1.0000000   6.0000000   1.0000000   1.0000000   6.0000000   1.0000000   1.0000000   6.0000000

  Atom       111         112         113         114         115         116         117         118         119         120
 IAtWgt=           1           1           1          12           1           1          12           1           1          12
 AtmWgt=   1.0078250   1.0078250   1.0078250  12.0000000   1.0078250   1.0078250  12.0000000   1.0078250   1.0078250  12.0000000
 NucSpn=           1           1           1           0           1           1           0           1           1           0
 AtZEff=  -0.0000000  -0.0000000  -0.0000000  -0.0000000  -0.0000000  -0.0000000  -0.0000000  -0.0000000  -0.0000000  -0.0000000
 NQMom=    0.0000000   0.0000000   0.0000000   0.0000000   0.0000000   0.0000000   0.0000000   0.0000000   0.0000000   0.0000000
 NMagM=    2.7928460   2.7928460   2.7928460   0.0000000   2.7928460   2.7928460   0.0000000   2.7928460   2.7928460   0.0000000
 AtZNuc=   1.0000000   1.0000000   1.0000000   6.0000000   1.0000000   1.0000000   6.0000000   1.0000000   1.0000000   6.0000000

  Atom       121         122         123         124         125         126         127         128         129         130
 IAtWgt=           1           1          12           1           1          12           1           1          12           1
 AtmWgt=   1.0078250   1.0078250  12.0000000   1.0078250   1.0078250  12.0000000   1.0078250   1.0078250  12.0000000   1.0078250
 NucSpn=           1           1           0           1           1           0           1           1           0           1
 AtZEff=  -0.0000000  -0.0000000  -0.0000000  -0.0000000  -0.0000000  -0.0000000  -0.0000000  -0.0000000  -0.0000000  -0.0000000
 NQMom=    0.0000000   0.0000000   0.0000000   0.0000000   0.0000000   0.0000000   0.0000000   0.0000000   0.0000000   0.0000000
 NMagM=    2.7928460   2.7928460   0.0000000   2.7928460   2.7928460   0.0000000   2.7928460   2.7928460   0.0000000   2.7928460
 AtZNuc=   1.0000000   1.0000000   6.0000000   1.0000000   1.0000000   6.0000000   1.0000000   1.0000000   6.0000000   1.0000000

  Atom       131         132         133         134         135         136         137         138         139         140
 IAtWgt=           1          12           1           1          12           1           1          12           1           1
 AtmWgt=   1.0078250  12.0000000   1.0078250   1.0078250  12.0000000   1.0078250   1.0078250  12.0000000   1.0078250   1.0078250
 NucSpn=           1           0           1           1           0           1           1           0           1           1
 AtZEff=  -0.0000000  -0.0000000  -0.0000000  -0.0000000  -0.0000000  -0.0000000  -0.0000000  -0.0000000  -0.0000000  -0.0000000
 NQMom=    0.0000000   0.0000000   0.0000000   0.0000000   0.0000000   0.0000000   0.0000000   0.0000000   0.0000000   0.0000000
 NMagM=    2.7928460   0.0000000   2.7928460   2.7928460   0.0000000   2.7928460   2.7928460   0.0000000   2.7928460   2.7928460
 AtZNuc=   1.0000000   6.0000000   1.0000000   1.0000000   6.0000000   1.0000000   1.0000000   6.0000000   1.0000000   1.0000000

  Atom       141         142         143         144
 IAtWgt=          12           1           1           1
 AtmWgt=  12.0000000   1.0078250   1.0078250   1.0078250
 NucSpn=           0           1           1           1
 AtZEff=  -0.0000000  -0.0000000  -0.0000000  -0.0000000
 NQMom=    0.0000000   0.0000000   0.0000000   0.0000000
 NMagM=    0.0000000   2.7928460   2.7928460   2.7928460
 AtZNuc=   6.0000000   1.0000000   1.0000000   1.0000000
 Leave Link  101 at Mon Jan 20 17:37:07 2020, MaxMem=  6710886400 cpu:               9.2 elap:               1.1
 (Enter /apps/gaussian/g16-a03/l103.exe)

 GradGradGradGradGradGradGradGradGradGradGradGradGradGradGradGradGradGrad
 Berny optimization.
 Initialization pass.
                           ----------------------------
                           !    Initial Parameters    !
                           ! (Angstroms and Degrees)  !
 --------------------------                            --------------------------
 ! Name  Definition              Value          Derivative Info.                !
 --------------------------------------------------------------------------------
 ! R1    R(1,2)                  1.3895         estimate D2E/DX2                !
 ! R2    R(1,5)                  1.8342         estimate D2E/DX2                !
 ! R3    R(1,8)                  1.4187         estimate D2E/DX2                !
 ! R4    R(2,3)                  1.416          estimate D2E/DX2                !
 ! R5    R(2,6)                  1.39           estimate D2E/DX2                !
 ! R6    R(3,4)                  1.3786         estimate D2E/DX2                !
 ! R7    R(3,7)                  1.0786         estimate D2E/DX2                !
 ! R8    R(4,5)                  1.8287         estimate D2E/DX2                !
 ! R9    R(4,75)                 1.424          estimate D2E/DX2                !
 ! R10   R(6,83)                 1.43           estimate D2E/DX2                !
 ! R11   R(8,9)                  1.3886         estimate D2E/DX2                !
 ! R12   R(8,12)                 1.835          estimate D2E/DX2                !
 ! R13   R(9,10)                 1.416          estimate D2E/DX2                !
 ! R14   R(9,13)                 1.39           estimate D2E/DX2                !
 ! R15   R(10,11)                1.3782         estimate D2E/DX2                !
 ! R16   R(10,14)                1.0792         estimate D2E/DX2                !
 ! R17   R(11,12)                1.8279         estimate D2E/DX2                !
 ! R18   R(11,22)                1.4262         estimate D2E/DX2                !
 ! R19   R(13,15)                1.4539         estimate D2E/DX2                !
 ! R20   R(15,16)                1.0843         estimate D2E/DX2                !
 ! R21   R(15,17)                1.0915         estimate D2E/DX2                !
 ! R22   R(15,18)                1.0923         estimate D2E/DX2                !
 ! R23   R(19,20)                1.385          estimate D2E/DX2                !
 ! R24   R(19,23)                1.8328         estimate D2E/DX2                !
 ! R25   R(19,26)                1.4249         estimate D2E/DX2                !
 ! R26   R(20,21)                1.418          estimate D2E/DX2                !
 ! R27   R(20,24)                1.3908         estimate D2E/DX2                !
 ! R28   R(21,22)                1.3768         estimate D2E/DX2                !
 ! R29   R(21,25)                1.0789         estimate D2E/DX2                !
 ! R30   R(22,23)                1.8279         estimate D2E/DX2                !
 ! R31   R(24,33)                1.4531         estimate D2E/DX2                !
 ! R32   R(26,27)                1.3846         estimate D2E/DX2                !
 ! R33   R(26,30)                1.8356         estimate D2E/DX2                !
 ! R34   R(27,28)                1.4301         estimate D2E/DX2                !
 ! R35   R(27,31)                1.3915         estimate D2E/DX2                !
 ! R36   R(28,29)                1.3608         estimate D2E/DX2                !
 ! R37   R(28,32)                1.0787         estimate D2E/DX2                !
 ! R38   R(29,30)                1.7975         estimate D2E/DX2                !
 ! R39   R(29,41)                1.075          estimate D2E/DX2                !
 ! R40   R(31,37)                1.4526         estimate D2E/DX2                !
 ! R41   R(33,34)                1.0924         estimate D2E/DX2                !
 ! R42   R(33,35)                1.0924         estimate D2E/DX2                !
 ! R43   R(33,36)                1.0844         estimate D2E/DX2                !
 ! R44   R(37,38)                1.0848         estimate D2E/DX2                !
 ! R45   R(37,39)                1.0923         estimate D2E/DX2                !
 ! R46   R(37,40)                1.0923         estimate D2E/DX2                !
 ! R47   R(42,43)                1.3846         estimate D2E/DX2                !
 ! R48   R(42,46)                1.8356         estimate D2E/DX2                !
 ! R49   R(42,49)                1.4249         estimate D2E/DX2                !
 ! R50   R(43,44)                1.4301         estimate D2E/DX2                !
 ! R51   R(43,47)                1.3915         estimate D2E/DX2                !
 ! R52   R(44,45)                1.3608         estimate D2E/DX2                !
 ! R53   R(44,48)                1.0787         estimate D2E/DX2                !
 ! R54   R(45,46)                1.7975         estimate D2E/DX2                !
 ! R55   R(45,64)                1.075          estimate D2E/DX2                !
 ! R56   R(47,56)                1.4526         estimate D2E/DX2                !
 ! R57   R(49,50)                1.385          estimate D2E/DX2                !
 ! R58   R(49,53)                1.8328         estimate D2E/DX2                !
 ! R59   R(50,51)                1.418          estimate D2E/DX2                !
 ! R60   R(50,54)                1.3908         estimate D2E/DX2                !
 ! R61   R(51,52)                1.3768         estimate D2E/DX2                !
 ! R62   R(51,55)                1.0789         estimate D2E/DX2                !
 ! R63   R(52,53)                1.8279         estimate D2E/DX2                !
 ! R64   R(52,68)                1.4262         estimate D2E/DX2                !
 ! R65   R(54,60)                1.4531         estimate D2E/DX2                !
 ! R66   R(56,57)                1.0923         estimate D2E/DX2                !
 ! R67   R(56,58)                1.0923         estimate D2E/DX2                !
 ! R68   R(56,59)                1.0848         estimate D2E/DX2                !
 ! R69   R(60,61)                1.0844         estimate D2E/DX2                !
 ! R70   R(60,62)                1.0924         estimate D2E/DX2                !
 ! R71   R(60,63)                1.0924         estimate D2E/DX2                !
 ! R72   R(65,66)                1.3886         estimate D2E/DX2                !
 ! R73   R(65,69)                1.835          estimate D2E/DX2                !
 ! R74   R(65,72)                1.4187         estimate D2E/DX2                !
 ! R75   R(66,67)                1.416          estimate D2E/DX2                !
 ! R76   R(66,70)                1.39           estimate D2E/DX2                !
 ! R77   R(67,68)                1.3782         estimate D2E/DX2                !
 ! R78   R(67,71)                1.0792         estimate D2E/DX2                !
 ! R79   R(68,69)                1.8279         estimate D2E/DX2                !
 ! R80   R(70,79)                1.4539         estimate D2E/DX2                !
 ! R81   R(72,73)                1.3895         estimate D2E/DX2                !
 ! R82   R(72,76)                1.8342         estimate D2E/DX2                !
 ! R83   R(73,74)                1.416          estimate D2E/DX2                !
 ! R84   R(73,77)                1.39           estimate D2E/DX2                !
 ! R85   R(74,75)                1.3786         estimate D2E/DX2                !
 ! R86   R(74,78)                1.0786         estimate D2E/DX2                !
 ! R87   R(75,76)                1.8287         estimate D2E/DX2                !
 ! R88   R(77,114)               1.43           estimate D2E/DX2                !
 ! R89   R(79,80)                1.0923         estimate D2E/DX2                !
 ! R90   R(79,81)                1.0923         estimate D2E/DX2                !
 ! R91   R(79,82)                1.0843         estimate D2E/DX2                !
 ! R92   R(83,84)                1.07           estimate D2E/DX2                !
 ! R93   R(83,85)                1.07           estimate D2E/DX2                !
 ! R94   R(83,86)                1.54           estimate D2E/DX2                !
 ! R95   R(86,87)                1.07           estimate D2E/DX2                !
 ! R96   R(86,88)                1.07           estimate D2E/DX2                !
 ! R97   R(86,89)                1.54           estimate D2E/DX2                !
 ! R98   R(89,90)                1.07           estimate D2E/DX2                !
 ! R99   R(89,91)                1.07           estimate D2E/DX2                !
 ! R100  R(89,92)                1.54           estimate D2E/DX2                !
 ! R101  R(92,93)                1.07           estimate D2E/DX2                !
 ! R102  R(92,94)                1.07           estimate D2E/DX2                !
 ! R103  R(92,95)                1.54           estimate D2E/DX2                !
 ! R104  R(95,96)                1.07           estimate D2E/DX2                !
 ! R105  R(95,97)                1.07           estimate D2E/DX2                !
 ! R106  R(95,98)                1.54           estimate D2E/DX2                !
 ! R107  R(98,99)                1.07           estimate D2E/DX2                !
 ! R108  R(98,100)               1.07           estimate D2E/DX2                !
 ! R109  R(98,101)               1.54           estimate D2E/DX2                !
 ! R110  R(101,102)              1.07           estimate D2E/DX2                !
 ! R111  R(101,103)              1.07           estimate D2E/DX2                !
 ! R112  R(101,104)              1.54           estimate D2E/DX2                !
 ! R113  R(104,105)              1.07           estimate D2E/DX2                !
 ! R114  R(104,106)              1.07           estimate D2E/DX2                !
 ! R115  R(104,107)              1.54           estimate D2E/DX2                !
 ! R116  R(107,108)              1.07           estimate D2E/DX2                !
 ! R117  R(107,109)              1.07           estimate D2E/DX2                !
 ! R118  R(107,110)              1.54           estimate D2E/DX2                !
 ! R119  R(110,111)              1.07           estimate D2E/DX2                !
 ! R120  R(110,112)              1.07           estimate D2E/DX2                !
 ! R121  R(110,113)              1.07           estimate D2E/DX2                !
 ! R122  R(114,115)              1.07           estimate D2E/DX2                !
 ! R123  R(114,116)              1.07           estimate D2E/DX2                !
 ! R124  R(114,117)              1.54           estimate D2E/DX2                !
 ! R125  R(117,118)              1.07           estimate D2E/DX2                !
 ! R126  R(117,119)              1.07           estimate D2E/DX2                !
 ! R127  R(117,120)              1.54           estimate D2E/DX2                !
 ! R128  R(120,121)              1.07           estimate D2E/DX2                !
 ! R129  R(120,122)              1.07           estimate D2E/DX2                !
 ! R130  R(120,123)              1.54           estimate D2E/DX2                !
 ! R131  R(123,124)              1.07           estimate D2E/DX2                !
 ! R132  R(123,125)              1.07           estimate D2E/DX2                !
 ! R133  R(123,126)              1.54           estimate D2E/DX2                !
 ! R134  R(126,127)              1.07           estimate D2E/DX2                !
 ! R135  R(126,128)              1.07           estimate D2E/DX2                !
 ! R136  R(126,129)              1.54           estimate D2E/DX2                !
 ! R137  R(129,130)              1.07           estimate D2E/DX2                !
 ! R138  R(129,131)              1.07           estimate D2E/DX2                !
 ! R139  R(129,132)              1.54           estimate D2E/DX2                !
 ! R140  R(132,133)              1.07           estimate D2E/DX2                !
 ! R141  R(132,134)              1.07           estimate D2E/DX2                !
 ! R142  R(132,135)              1.54           estimate D2E/DX2                !
 ! R143  R(135,136)              1.07           estimate D2E/DX2                !
 ! R144  R(135,137)              1.07           estimate D2E/DX2                !
 ! R145  R(135,138)              1.54           estimate D2E/DX2                !
 ! R146  R(138,139)              1.07           estimate D2E/DX2                !
 ! R147  R(138,140)              1.07           estimate D2E/DX2                !
 ! R148  R(138,141)              1.54           estimate D2E/DX2                !
 ! R149  R(141,142)              1.07           estimate D2E/DX2                !
 ! R150  R(141,143)              1.07           estimate D2E/DX2                !
 ! R151  R(141,144)              1.07           estimate D2E/DX2                !
 ! A1    A(2,1,5)              108.8587         estimate D2E/DX2                !
 ! A2    A(2,1,8)              129.0662         estimate D2E/DX2                !
 ! A3    A(5,1,8)              122.0751         estimate D2E/DX2                !
 ! A4    A(1,2,3)              116.0385         estimate D2E/DX2                !
 ! A5    A(1,2,6)              118.4499         estimate D2E/DX2                !
 ! A6    A(3,2,6)              125.5116         estimate D2E/DX2                !
 ! A7    A(2,3,4)              114.4719         estimate D2E/DX2                !
 ! A8    A(2,3,7)              123.4106         estimate D2E/DX2                !
 ! A9    A(4,3,7)              122.1176         estimate D2E/DX2                !
 ! A10   A(3,4,5)              110.3201         estimate D2E/DX2                !
 ! A11   A(3,4,75)             129.375          estimate D2E/DX2                !
 ! A12   A(5,4,75)             120.3048         estimate D2E/DX2                !
 ! A13   A(1,5,4)               90.3109         estimate D2E/DX2                !
 ! A14   A(2,6,83)             105.7757         estimate D2E/DX2                !
 ! A15   A(1,8,9)              129.0845         estimate D2E/DX2                !
 ! A16   A(1,8,12)             122.0531         estimate D2E/DX2                !
 ! A17   A(9,8,12)             108.8623         estimate D2E/DX2                !
 ! A18   A(8,9,10)             116.0568         estimate D2E/DX2                !
 ! A19   A(8,9,13)             118.4316         estimate D2E/DX2                !
 ! A20   A(10,9,13)            125.5116         estimate D2E/DX2                !
 ! A21   A(9,10,11)            114.4339         estimate D2E/DX2                !
 ! A22   A(9,10,14)            123.4547         estimate D2E/DX2                !
 ! A23   A(11,10,14)           122.1114         estimate D2E/DX2                !
 ! A24   A(10,11,12)           110.38           estimate D2E/DX2                !
 ! A25   A(10,11,22)           129.3548         estimate D2E/DX2                !
 ! A26   A(12,11,22)           120.2652         estimate D2E/DX2                !
 ! A27   A(8,12,11)             90.2669         estimate D2E/DX2                !
 ! A28   A(9,13,15)            118.7405         estimate D2E/DX2                !
 ! A29   A(13,15,16)           105.1143         estimate D2E/DX2                !
 ! A30   A(13,15,17)           111.0247         estimate D2E/DX2                !
 ! A31   A(13,15,18)           111.0082         estimate D2E/DX2                !
 ! A32   A(16,15,17)           109.7935         estimate D2E/DX2                !
 ! A33   A(16,15,18)           109.7781         estimate D2E/DX2                !
 ! A34   A(17,15,18)           110.0142         estimate D2E/DX2                !
 ! A35   A(20,19,23)           108.952          estimate D2E/DX2                !
 ! A36   A(20,19,26)           129.1642         estimate D2E/DX2                !
 ! A37   A(23,19,26)           121.8838         estimate D2E/DX2                !
 ! A38   A(19,20,21)           116.0266         estimate D2E/DX2                !
 ! A39   A(19,20,24)           118.5668         estimate D2E/DX2                !
 ! A40   A(21,20,24)           125.4066         estimate D2E/DX2                !
 ! A41   A(20,21,22)           114.4246         estimate D2E/DX2                !
 ! A42   A(20,21,25)           123.4182         estimate D2E/DX2                !
 ! A43   A(22,21,25)           122.1572         estimate D2E/DX2                !
 ! A44   A(11,22,21)           129.4268         estimate D2E/DX2                !
 ! A45   A(11,22,23)           120.2652         estimate D2E/DX2                !
 ! A46   A(21,22,23)           110.308          estimate D2E/DX2                !
 ! A47   A(19,23,22)            90.2887         estimate D2E/DX2                !
 ! A48   A(20,24,33)           118.8351         estimate D2E/DX2                !
 ! A49   A(19,26,27)           129.0346         estimate D2E/DX2                !
 ! A50   A(19,26,30)           122.0607         estimate D2E/DX2                !
 ! A51   A(27,26,30)           108.9047         estimate D2E/DX2                !
 ! A52   A(26,27,28)           115.5785         estimate D2E/DX2                !
 ! A53   A(26,27,31)           118.8686         estimate D2E/DX2                !
 ! A54   A(28,27,31)           125.5529         estimate D2E/DX2                !
 ! A55   A(27,28,29)           113.3006         estimate D2E/DX2                !
 ! A56   A(27,28,32)           123.7479         estimate D2E/DX2                !
 ! A57   A(29,28,32)           122.9515         estimate D2E/DX2                !
 ! A58   A(28,29,30)           112.3505         estimate D2E/DX2                !
 ! A59   A(28,29,41)           128.6119         estimate D2E/DX2                !
 ! A60   A(30,29,41)           119.0377         estimate D2E/DX2                !
 ! A61   A(26,30,29)            89.8657         estimate D2E/DX2                !
 ! A62   A(27,31,37)           118.7781         estimate D2E/DX2                !
 ! A63   A(24,33,34)           111.0222         estimate D2E/DX2                !
 ! A64   A(24,33,35)           111.0222         estimate D2E/DX2                !
 ! A65   A(24,33,36)           105.1106         estimate D2E/DX2                !
 ! A66   A(34,33,35)           110.0254         estimate D2E/DX2                !
 ! A67   A(34,33,36)           109.7757         estimate D2E/DX2                !
 ! A68   A(35,33,36)           109.7757         estimate D2E/DX2                !
 ! A69   A(31,37,38)           105.1449         estimate D2E/DX2                !
 ! A70   A(31,37,39)           111.084          estimate D2E/DX2                !
 ! A71   A(31,37,40)           111.084          estimate D2E/DX2                !
 ! A72   A(38,37,39)           109.6851         estimate D2E/DX2                !
 ! A73   A(38,37,40)           109.6851         estimate D2E/DX2                !
 ! A74   A(39,37,40)           110.0442         estimate D2E/DX2                !
 ! A75   A(43,42,46)           108.9047         estimate D2E/DX2                !
 ! A76   A(43,42,49)           129.0346         estimate D2E/DX2                !
 ! A77   A(46,42,49)           122.0607         estimate D2E/DX2                !
 ! A78   A(42,43,44)           115.5785         estimate D2E/DX2                !
 ! A79   A(42,43,47)           118.8686         estimate D2E/DX2                !
 ! A80   A(44,43,47)           125.5529         estimate D2E/DX2                !
 ! A81   A(43,44,45)           113.3006         estimate D2E/DX2                !
 ! A82   A(43,44,48)           123.7479         estimate D2E/DX2                !
 ! A83   A(45,44,48)           122.9515         estimate D2E/DX2                !
 ! A84   A(44,45,46)           112.3505         estimate D2E/DX2                !
 ! A85   A(44,45,64)           128.6119         estimate D2E/DX2                !
 ! A86   A(46,45,64)           119.0377         estimate D2E/DX2                !
 ! A87   A(42,46,45)            89.8657         estimate D2E/DX2                !
 ! A88   A(43,47,56)           118.7781         estimate D2E/DX2                !
 ! A89   A(42,49,50)           129.1642         estimate D2E/DX2                !
 ! A90   A(42,49,53)           121.8838         estimate D2E/DX2                !
 ! A91   A(50,49,53)           108.952          estimate D2E/DX2                !
 ! A92   A(49,50,51)           116.0266         estimate D2E/DX2                !
 ! A93   A(49,50,54)           118.5668         estimate D2E/DX2                !
 ! A94   A(51,50,54)           125.4066         estimate D2E/DX2                !
 ! A95   A(50,51,52)           114.4246         estimate D2E/DX2                !
 ! A96   A(50,51,55)           123.4182         estimate D2E/DX2                !
 ! A97   A(52,51,55)           122.1572         estimate D2E/DX2                !
 ! A98   A(51,52,53)           110.308          estimate D2E/DX2                !
 ! A99   A(51,52,68)           129.4268         estimate D2E/DX2                !
 ! A100  A(53,52,68)           120.2652         estimate D2E/DX2                !
 ! A101  A(49,53,52)            90.2887         estimate D2E/DX2                !
 ! A102  A(50,54,60)           118.8351         estimate D2E/DX2                !
 ! A103  A(47,56,57)           111.084          estimate D2E/DX2                !
 ! A104  A(47,56,58)           111.084          estimate D2E/DX2                !
 ! A105  A(47,56,59)           105.1449         estimate D2E/DX2                !
 ! A106  A(57,56,58)           110.0442         estimate D2E/DX2                !
 ! A107  A(57,56,59)           109.6851         estimate D2E/DX2                !
 ! A108  A(58,56,59)           109.6851         estimate D2E/DX2                !
 ! A109  A(54,60,61)           105.1106         estimate D2E/DX2                !
 ! A110  A(54,60,62)           111.0222         estimate D2E/DX2                !
 ! A111  A(54,60,63)           111.0222         estimate D2E/DX2                !
 ! A112  A(61,60,62)           109.7757         estimate D2E/DX2                !
 ! A113  A(61,60,63)           109.7757         estimate D2E/DX2                !
 ! A114  A(62,60,63)           110.0254         estimate D2E/DX2                !
 ! A115  A(66,65,69)           108.8623         estimate D2E/DX2                !
 ! A116  A(66,65,72)           129.0845         estimate D2E/DX2                !
 ! A117  A(69,65,72)           122.0531         estimate D2E/DX2                !
 ! A118  A(65,66,67)           116.0568         estimate D2E/DX2                !
 ! A119  A(65,66,70)           118.4316         estimate D2E/DX2                !
 ! A120  A(67,66,70)           125.5116         estimate D2E/DX2                !
 ! A121  A(66,67,68)           114.4339         estimate D2E/DX2                !
 ! A122  A(66,67,71)           123.4547         estimate D2E/DX2                !
 ! A123  A(68,67,71)           122.1114         estimate D2E/DX2                !
 ! A124  A(52,68,67)           129.3548         estimate D2E/DX2                !
 ! A125  A(52,68,69)           120.2652         estimate D2E/DX2                !
 ! A126  A(67,68,69)           110.38           estimate D2E/DX2                !
 ! A127  A(65,69,68)            90.2669         estimate D2E/DX2                !
 ! A128  A(66,70,79)           118.7405         estimate D2E/DX2                !
 ! A129  A(65,72,73)           129.0662         estimate D2E/DX2                !
 ! A130  A(65,72,76)           122.0751         estimate D2E/DX2                !
 ! A131  A(73,72,76)           108.8587         estimate D2E/DX2                !
 ! A132  A(72,73,74)           116.0385         estimate D2E/DX2                !
 ! A133  A(72,73,77)           118.4499         estimate D2E/DX2                !
 ! A134  A(74,73,77)           125.5116         estimate D2E/DX2                !
 ! A135  A(73,74,75)           114.4719         estimate D2E/DX2                !
 ! A136  A(73,74,78)           123.4106         estimate D2E/DX2                !
 ! A137  A(75,74,78)           122.1176         estimate D2E/DX2                !
 ! A138  A(4,75,74)            129.375          estimate D2E/DX2                !
 ! A139  A(4,75,76)            120.3048         estimate D2E/DX2                !
 ! A140  A(74,75,76)           110.3201         estimate D2E/DX2                !
 ! A141  A(72,76,75)            90.3109         estimate D2E/DX2                !
 ! A142  A(73,77,114)           97.891          estimate D2E/DX2                !
 ! A143  A(70,79,80)           111.0082         estimate D2E/DX2                !
 ! A144  A(70,79,81)           111.0082         estimate D2E/DX2                !
 ! A145  A(70,79,82)           105.1143         estimate D2E/DX2                !
 ! A146  A(80,79,81)           110.0442         estimate D2E/DX2                !
 ! A147  A(80,79,82)           109.7781         estimate D2E/DX2                !
 ! A148  A(81,79,82)           109.7781         estimate D2E/DX2                !
 ! A149  A(6,83,84)            109.4712         estimate D2E/DX2                !
 ! A150  A(6,83,85)            109.4712         estimate D2E/DX2                !
 ! A151  A(6,83,86)            109.4712         estimate D2E/DX2                !
 ! A152  A(84,83,85)           109.4713         estimate D2E/DX2                !
 ! A153  A(84,83,86)           109.4712         estimate D2E/DX2                !
 ! A154  A(85,83,86)           109.4712         estimate D2E/DX2                !
 ! A155  A(83,86,87)           109.4712         estimate D2E/DX2                !
 ! A156  A(83,86,88)           109.4712         estimate D2E/DX2                !
 ! A157  A(83,86,89)           109.4712         estimate D2E/DX2                !
 ! A158  A(87,86,88)           109.4713         estimate D2E/DX2                !
 ! A159  A(87,86,89)           109.4712         estimate D2E/DX2                !
 ! A160  A(88,86,89)           109.4712         estimate D2E/DX2                !
 ! A161  A(86,89,90)           109.4712         estimate D2E/DX2                !
 ! A162  A(86,89,91)           109.4712         estimate D2E/DX2                !
 ! A163  A(86,89,92)           109.4712         estimate D2E/DX2                !
 ! A164  A(90,89,91)           109.4713         estimate D2E/DX2                !
 ! A165  A(90,89,92)           109.4712         estimate D2E/DX2                !
 ! A166  A(91,89,92)           109.4712         estimate D2E/DX2                !
 ! A167  A(89,92,93)           109.4712         estimate D2E/DX2                !
 ! A168  A(89,92,94)           109.4712         estimate D2E/DX2                !
 ! A169  A(89,92,95)           109.4712         estimate D2E/DX2                !
 ! A170  A(93,92,94)           109.4712         estimate D2E/DX2                !
 ! A171  A(93,92,95)           109.4713         estimate D2E/DX2                !
 ! A172  A(94,92,95)           109.4712         estimate D2E/DX2                !
 ! A173  A(92,95,96)           109.4712         estimate D2E/DX2                !
 ! A174  A(92,95,97)           109.4712         estimate D2E/DX2                !
 ! A175  A(92,95,98)           109.4712         estimate D2E/DX2                !
 ! A176  A(96,95,97)           109.4713         estimate D2E/DX2                !
 ! A177  A(96,95,98)           109.4712         estimate D2E/DX2                !
 ! A178  A(97,95,98)           109.4712         estimate D2E/DX2                !
 ! A179  A(95,98,99)           109.4712         estimate D2E/DX2                !
 ! A180  A(95,98,100)          109.4712         estimate D2E/DX2                !
 ! A181  A(95,98,101)          109.4712         estimate D2E/DX2                !
 ! A182  A(99,98,100)          109.4712         estimate D2E/DX2                !
 ! A183  A(99,98,101)          109.4713         estimate D2E/DX2                !
 ! A184  A(100,98,101)         109.4712         estimate D2E/DX2                !
 ! A185  A(98,101,102)         109.4712         estimate D2E/DX2                !
 ! A186  A(98,101,103)         109.4712         estimate D2E/DX2                !
 ! A187  A(98,101,104)         109.4712         estimate D2E/DX2                !
 ! A188  A(102,101,103)        109.4712         estimate D2E/DX2                !
 ! A189  A(102,101,104)        109.4713         estimate D2E/DX2                !
 ! A190  A(103,101,104)        109.4712         estimate D2E/DX2                !
 ! A191  A(101,104,105)        109.4712         estimate D2E/DX2                !
 ! A192  A(101,104,106)        109.4712         estimate D2E/DX2                !
 ! A193  A(101,104,107)        109.4712         estimate D2E/DX2                !
 ! A194  A(105,104,106)        109.4712         estimate D2E/DX2                !
 ! A195  A(105,104,107)        109.4713         estimate D2E/DX2                !
 ! A196  A(106,104,107)        109.4712         estimate D2E/DX2                !
 ! A197  A(104,107,108)        109.4712         estimate D2E/DX2                !
 ! A198  A(104,107,109)        109.4712         estimate D2E/DX2                !
 ! A199  A(104,107,110)        109.4712         estimate D2E/DX2                !
 ! A200  A(108,107,109)        109.4712         estimate D2E/DX2                !
 ! A201  A(108,107,110)        109.4713         estimate D2E/DX2                !
 ! A202  A(109,107,110)        109.4712         estimate D2E/DX2                !
 ! A203  A(107,110,111)        109.4712         estimate D2E/DX2                !
 ! A204  A(107,110,112)        109.4712         estimate D2E/DX2                !
 ! A205  A(107,110,113)        109.4712         estimate D2E/DX2                !
 ! A206  A(111,110,112)        109.4713         estimate D2E/DX2                !
 ! A207  A(111,110,113)        109.4712         estimate D2E/DX2                !
 ! A208  A(112,110,113)        109.4712         estimate D2E/DX2                !
 ! A209  A(77,114,115)         109.4712         estimate D2E/DX2                !
 ! A210  A(77,114,116)         109.4712         estimate D2E/DX2                !
 ! A211  A(77,114,117)         109.4712         estimate D2E/DX2                !
 ! A212  A(115,114,116)        109.4713         estimate D2E/DX2                !
 ! A213  A(115,114,117)        109.4712         estimate D2E/DX2                !
 ! A214  A(116,114,117)        109.4712         estimate D2E/DX2                !
 ! A215  A(114,117,118)        109.4712         estimate D2E/DX2                !
 ! A216  A(114,117,119)        109.4712         estimate D2E/DX2                !
 ! A217  A(114,117,120)        109.4712         estimate D2E/DX2                !
 ! A218  A(118,117,119)        109.4713         estimate D2E/DX2                !
 ! A219  A(118,117,120)        109.4712         estimate D2E/DX2                !
 ! A220  A(119,117,120)        109.4712         estimate D2E/DX2                !
 ! A221  A(117,120,121)        109.4712         estimate D2E/DX2                !
 ! A222  A(117,120,122)        109.4712         estimate D2E/DX2                !
 ! A223  A(117,120,123)        109.4712         estimate D2E/DX2                !
 ! A224  A(121,120,122)        109.4713         estimate D2E/DX2                !
 ! A225  A(121,120,123)        109.4712         estimate D2E/DX2                !
 ! A226  A(122,120,123)        109.4712         estimate D2E/DX2                !
 ! A227  A(120,123,124)        109.4712         estimate D2E/DX2                !
 ! A228  A(120,123,125)        109.4712         estimate D2E/DX2                !
 ! A229  A(120,123,126)        109.4712         estimate D2E/DX2                !
 ! A230  A(124,123,125)        109.4712         estimate D2E/DX2                !
 ! A231  A(124,123,126)        109.4713         estimate D2E/DX2                !
 ! A232  A(125,123,126)        109.4712         estimate D2E/DX2                !
 ! A233  A(123,126,127)        109.4712         estimate D2E/DX2                !
 ! A234  A(123,126,128)        109.4712         estimate D2E/DX2                !
 ! A235  A(123,126,129)        109.4712         estimate D2E/DX2                !
 ! A236  A(127,126,128)        109.4713         estimate D2E/DX2                !
 ! A237  A(127,126,129)        109.4712         estimate D2E/DX2                !
 ! A238  A(128,126,129)        109.4712         estimate D2E/DX2                !
 ! A239  A(126,129,130)        109.4712         estimate D2E/DX2                !
 ! A240  A(126,129,131)        109.4712         estimate D2E/DX2                !
 ! A241  A(126,129,132)        109.4712         estimate D2E/DX2                !
 ! A242  A(130,129,131)        109.4712         estimate D2E/DX2                !
 ! A243  A(130,129,132)        109.4712         estimate D2E/DX2                !
 ! A244  A(131,129,132)        109.4712         estimate D2E/DX2                !
 ! A245  A(129,132,133)        109.4712         estimate D2E/DX2                !
 ! A246  A(129,132,134)        109.4712         estimate D2E/DX2                !
 ! A247  A(129,132,135)        109.4712         estimate D2E/DX2                !
 ! A248  A(133,132,134)        109.4712         estimate D2E/DX2                !
 ! A249  A(133,132,135)        109.4713         estimate D2E/DX2                !
 ! A250  A(134,132,135)        109.4712         estimate D2E/DX2                !
 ! A251  A(132,135,136)        109.4712         estimate D2E/DX2                !
 ! A252  A(132,135,137)        109.4712         estimate D2E/DX2                !
 ! A253  A(132,135,138)        109.4712         estimate D2E/DX2                !
 ! A254  A(136,135,137)        109.4712         estimate D2E/DX2                !
 ! A255  A(136,135,138)        109.4713         estimate D2E/DX2                !
 ! A256  A(137,135,138)        109.4712         estimate D2E/DX2                !
 ! A257  A(135,138,139)        109.4712         estimate D2E/DX2                !
 ! A258  A(135,138,140)        109.4712         estimate D2E/DX2                !
 ! A259  A(135,138,141)        109.4712         estimate D2E/DX2                !
 ! A260  A(139,138,140)        109.4712         estimate D2E/DX2                !
 ! A261  A(139,138,141)        109.4713         estimate D2E/DX2                !
 ! A262  A(140,138,141)        109.4712         estimate D2E/DX2                !
 ! A263  A(138,141,142)        109.4712         estimate D2E/DX2                !
 ! A264  A(138,141,143)        109.4712         estimate D2E/DX2                !
 ! A265  A(138,141,144)        109.4712         estimate D2E/DX2                !
 ! A266  A(142,141,143)        109.4713         estimate D2E/DX2                !
 ! A267  A(142,141,144)        109.4712         estimate D2E/DX2                !
 ! A268  A(143,141,144)        109.4712         estimate D2E/DX2                !
 ! D1    D(5,1,2,3)              0.0            estimate D2E/DX2                !
 ! D2    D(5,1,2,6)            180.0            estimate D2E/DX2                !
 ! D3    D(8,1,2,3)            180.0            estimate D2E/DX2                !
 ! D4    D(8,1,2,6)              0.0            estimate D2E/DX2                !
 ! D5    D(2,1,5,4)              0.0            estimate D2E/DX2                !
 ! D6    D(8,1,5,4)            180.0            estimate D2E/DX2                !
 ! D7    D(2,1,8,9)            180.0            estimate D2E/DX2                !
 ! D8    D(2,1,8,12)             0.0            estimate D2E/DX2                !
 ! D9    D(5,1,8,9)              0.0            estimate D2E/DX2                !
 ! D10   D(5,1,8,12)           180.0            estimate D2E/DX2                !
 ! D11   D(1,2,3,4)              0.0            estimate D2E/DX2                !
 ! D12   D(1,2,3,7)            180.0            estimate D2E/DX2                !
 ! D13   D(6,2,3,4)            180.0            estimate D2E/DX2                !
 ! D14   D(6,2,3,7)              0.0            estimate D2E/DX2                !
 ! D15   D(1,2,6,83)           180.0            estimate D2E/DX2                !
 ! D16   D(3,2,6,83)             0.0            estimate D2E/DX2                !
 ! D17   D(2,3,4,5)              0.0            estimate D2E/DX2                !
 ! D18   D(2,3,4,75)           180.0            estimate D2E/DX2                !
 ! D19   D(7,3,4,5)            180.0            estimate D2E/DX2                !
 ! D20   D(7,3,4,75)             0.0            estimate D2E/DX2                !
 ! D21   D(3,4,5,1)              0.0            estimate D2E/DX2                !
 ! D22   D(75,4,5,1)           180.0            estimate D2E/DX2                !
 ! D23   D(3,4,75,74)          180.0            estimate D2E/DX2                !
 ! D24   D(3,4,75,76)            0.0            estimate D2E/DX2                !
 ! D25   D(5,4,75,74)            0.0            estimate D2E/DX2                !
 ! D26   D(5,4,75,76)          180.0            estimate D2E/DX2                !
 ! D27   D(2,6,83,84)          -60.1111         estimate D2E/DX2                !
 ! D28   D(2,6,83,85)           59.8889         estimate D2E/DX2                !
 ! D29   D(2,6,83,86)          179.8889         estimate D2E/DX2                !
 ! D30   D(1,8,9,10)           180.0            estimate D2E/DX2                !
 ! D31   D(1,8,9,13)             0.0            estimate D2E/DX2                !
 ! D32   D(12,8,9,10)            0.0            estimate D2E/DX2                !
 ! D33   D(12,8,9,13)          180.0            estimate D2E/DX2                !
 ! D34   D(1,8,12,11)          180.0            estimate D2E/DX2                !
 ! D35   D(9,8,12,11)            0.0            estimate D2E/DX2                !
 ! D36   D(8,9,10,11)            0.0            estimate D2E/DX2                !
 ! D37   D(8,9,10,14)          180.0            estimate D2E/DX2                !
 ! D38   D(13,9,10,11)         180.0            estimate D2E/DX2                !
 ! D39   D(13,9,10,14)           0.0            estimate D2E/DX2                !
 ! D40   D(8,9,13,15)          180.0            estimate D2E/DX2                !
 ! D41   D(10,9,13,15)           0.0            estimate D2E/DX2                !
 ! D42   D(9,10,11,12)           0.0            estimate D2E/DX2                !
 ! D43   D(9,10,11,22)         180.0            estimate D2E/DX2                !
 ! D44   D(14,10,11,12)        180.0            estimate D2E/DX2                !
 ! D45   D(14,10,11,22)          0.0            estimate D2E/DX2                !
 ! D46   D(10,11,12,8)           0.0            estimate D2E/DX2                !
 ! D47   D(22,11,12,8)         180.0            estimate D2E/DX2                !
 ! D48   D(10,11,22,21)        180.0            estimate D2E/DX2                !
 ! D49   D(10,11,22,23)          0.0            estimate D2E/DX2                !
 ! D50   D(12,11,22,21)          0.0            estimate D2E/DX2                !
 ! D51   D(12,11,22,23)        180.0            estimate D2E/DX2                !
 ! D52   D(9,13,15,16)         180.0            estimate D2E/DX2                !
 ! D53   D(9,13,15,17)         -61.3411         estimate D2E/DX2                !
 ! D54   D(9,13,15,18)          61.3681         estimate D2E/DX2                !
 ! D55   D(23,19,20,21)          0.0            estimate D2E/DX2                !
 ! D56   D(23,19,20,24)        180.0            estimate D2E/DX2                !
 ! D57   D(26,19,20,21)        180.0            estimate D2E/DX2                !
 ! D58   D(26,19,20,24)          0.0            estimate D2E/DX2                !
 ! D59   D(20,19,23,22)          0.0            estimate D2E/DX2                !
 ! D60   D(26,19,23,22)        180.0            estimate D2E/DX2                !
 ! D61   D(20,19,26,27)        180.0            estimate D2E/DX2                !
 ! D62   D(20,19,26,30)          0.0            estimate D2E/DX2                !
 ! D63   D(23,19,26,27)          0.0            estimate D2E/DX2                !
 ! D64   D(23,19,26,30)        180.0            estimate D2E/DX2                !
 ! D65   D(19,20,21,22)          0.0            estimate D2E/DX2                !
 ! D66   D(19,20,21,25)        180.0            estimate D2E/DX2                !
 ! D67   D(24,20,21,22)        180.0            estimate D2E/DX2                !
 ! D68   D(24,20,21,25)          0.0            estimate D2E/DX2                !
 ! D69   D(19,20,24,33)        180.0            estimate D2E/DX2                !
 ! D70   D(21,20,24,33)          0.0            estimate D2E/DX2                !
 ! D71   D(20,21,22,11)        180.0            estimate D2E/DX2                !
 ! D72   D(20,21,22,23)          0.0            estimate D2E/DX2                !
 ! D73   D(25,21,22,11)          0.0            estimate D2E/DX2                !
 ! D74   D(25,21,22,23)        180.0            estimate D2E/DX2                !
 ! D75   D(11,22,23,19)        180.0            estimate D2E/DX2                !
 ! D76   D(21,22,23,19)          0.0            estimate D2E/DX2                !
 ! D77   D(20,24,33,34)         61.3658         estimate D2E/DX2                !
 ! D78   D(20,24,33,35)        -61.3658         estimate D2E/DX2                !
 ! D79   D(20,24,33,36)        180.0            estimate D2E/DX2                !
 ! D80   D(19,26,27,28)        180.0            estimate D2E/DX2                !
 ! D81   D(19,26,27,31)          0.0            estimate D2E/DX2                !
 ! D82   D(30,26,27,28)          0.0            estimate D2E/DX2                !
 ! D83   D(30,26,27,31)        180.0            estimate D2E/DX2                !
 ! D84   D(19,26,30,29)        180.0            estimate D2E/DX2                !
 ! D85   D(27,26,30,29)          0.0            estimate D2E/DX2                !
 ! D86   D(26,27,28,29)          0.0            estimate D2E/DX2                !
 ! D87   D(26,27,28,32)        180.0            estimate D2E/DX2                !
 ! D88   D(31,27,28,29)        180.0            estimate D2E/DX2                !
 ! D89   D(31,27,28,32)          0.0            estimate D2E/DX2                !
 ! D90   D(26,27,31,37)        180.0            estimate D2E/DX2                !
 ! D91   D(28,27,31,37)          0.0            estimate D2E/DX2                !
 ! D92   D(27,28,29,30)          0.0            estimate D2E/DX2                !
 ! D93   D(27,28,29,41)        180.0            estimate D2E/DX2                !
 ! D94   D(32,28,29,30)        180.0            estimate D2E/DX2                !
 ! D95   D(32,28,29,41)          0.0            estimate D2E/DX2                !
 ! D96   D(28,29,30,26)          0.0            estimate D2E/DX2                !
 ! D97   D(41,29,30,26)        180.0            estimate D2E/DX2                !
 ! D98   D(27,31,37,38)        180.0            estimate D2E/DX2                !
 ! D99   D(27,31,37,39)        -61.4215         estimate D2E/DX2                !
 ! D100  D(27,31,37,40)         61.4215         estimate D2E/DX2                !
 ! D101  D(46,42,43,44)          0.0            estimate D2E/DX2                !
 ! D102  D(46,42,43,47)        180.0            estimate D2E/DX2                !
 ! D103  D(49,42,43,44)        180.0            estimate D2E/DX2                !
 ! D104  D(49,42,43,47)          0.0            estimate D2E/DX2                !
 ! D105  D(43,42,46,45)          0.0            estimate D2E/DX2                !
 ! D106  D(49,42,46,45)        180.0            estimate D2E/DX2                !
 ! D107  D(43,42,49,50)        180.0            estimate D2E/DX2                !
 ! D108  D(43,42,49,53)          0.0            estimate D2E/DX2                !
 ! D109  D(46,42,49,50)          0.0            estimate D2E/DX2                !
 ! D110  D(46,42,49,53)        180.0            estimate D2E/DX2                !
 ! D111  D(42,43,44,45)          0.0            estimate D2E/DX2                !
 ! D112  D(42,43,44,48)        180.0            estimate D2E/DX2                !
 ! D113  D(47,43,44,45)        180.0            estimate D2E/DX2                !
 ! D114  D(47,43,44,48)          0.0            estimate D2E/DX2                !
 ! D115  D(42,43,47,56)        180.0            estimate D2E/DX2                !
 ! D116  D(44,43,47,56)          0.0            estimate D2E/DX2                !
 ! D117  D(43,44,45,46)          0.0            estimate D2E/DX2                !
 ! D118  D(43,44,45,64)        180.0            estimate D2E/DX2                !
 ! D119  D(48,44,45,46)        180.0            estimate D2E/DX2                !
 ! D120  D(48,44,45,64)          0.0            estimate D2E/DX2                !
 ! D121  D(44,45,46,42)          0.0            estimate D2E/DX2                !
 ! D122  D(64,45,46,42)        180.0            estimate D2E/DX2                !
 ! D123  D(43,47,56,57)         61.4215         estimate D2E/DX2                !
 ! D124  D(43,47,56,58)        -61.4215         estimate D2E/DX2                !
 ! D125  D(43,47,56,59)        180.0            estimate D2E/DX2                !
 ! D126  D(42,49,50,51)        180.0            estimate D2E/DX2                !
 ! D127  D(42,49,50,54)          0.0            estimate D2E/DX2                !
 ! D128  D(53,49,50,51)          0.0            estimate D2E/DX2                !
 ! D129  D(53,49,50,54)        180.0            estimate D2E/DX2                !
 ! D130  D(42,49,53,52)        180.0            estimate D2E/DX2                !
 ! D131  D(50,49,53,52)          0.0            estimate D2E/DX2                !
 ! D132  D(49,50,51,52)          0.0            estimate D2E/DX2                !
 ! D133  D(49,50,51,55)        180.0            estimate D2E/DX2                !
 ! D134  D(54,50,51,52)        180.0            estimate D2E/DX2                !
 ! D135  D(54,50,51,55)          0.0            estimate D2E/DX2                !
 ! D136  D(49,50,54,60)        180.0            estimate D2E/DX2                !
 ! D137  D(51,50,54,60)          0.0            estimate D2E/DX2                !
 ! D138  D(50,51,52,53)          0.0            estimate D2E/DX2                !
 ! D139  D(50,51,52,68)        180.0            estimate D2E/DX2                !
 ! D140  D(55,51,52,53)        180.0            estimate D2E/DX2                !
 ! D141  D(55,51,52,68)          0.0            estimate D2E/DX2                !
 ! D142  D(51,52,53,49)          0.0            estimate D2E/DX2                !
 ! D143  D(68,52,53,49)        180.0            estimate D2E/DX2                !
 ! D144  D(51,52,68,67)        180.0            estimate D2E/DX2                !
 ! D145  D(51,52,68,69)          0.0            estimate D2E/DX2                !
 ! D146  D(53,52,68,67)          0.0            estimate D2E/DX2                !
 ! D147  D(53,52,68,69)        180.0            estimate D2E/DX2                !
 ! D148  D(50,54,60,61)        180.0            estimate D2E/DX2                !
 ! D149  D(50,54,60,62)        -61.3658         estimate D2E/DX2                !
 ! D150  D(50,54,60,63)         61.3658         estimate D2E/DX2                !
 ! D151  D(69,65,66,67)          0.0            estimate D2E/DX2                !
 ! D152  D(69,65,66,70)        180.0            estimate D2E/DX2                !
 ! D153  D(72,65,66,67)        180.0            estimate D2E/DX2                !
 ! D154  D(72,65,66,70)          0.0            estimate D2E/DX2                !
 ! D155  D(66,65,69,68)          0.0            estimate D2E/DX2                !
 ! D156  D(72,65,69,68)        180.0            estimate D2E/DX2                !
 ! D157  D(66,65,72,73)        180.0            estimate D2E/DX2                !
 ! D158  D(66,65,72,76)          0.0            estimate D2E/DX2                !
 ! D159  D(69,65,72,73)          0.0            estimate D2E/DX2                !
 ! D160  D(69,65,72,76)        180.0            estimate D2E/DX2                !
 ! D161  D(65,66,67,68)          0.0            estimate D2E/DX2                !
 ! D162  D(65,66,67,71)        180.0            estimate D2E/DX2                !
 ! D163  D(70,66,67,68)        180.0            estimate D2E/DX2                !
 ! D164  D(70,66,67,71)          0.0            estimate D2E/DX2                !
 ! D165  D(65,66,70,79)        180.0            estimate D2E/DX2                !
 ! D166  D(67,66,70,79)          0.0            estimate D2E/DX2                !
 ! D167  D(66,67,68,52)        180.0            estimate D2E/DX2                !
 ! D168  D(66,67,68,69)          0.0            estimate D2E/DX2                !
 ! D169  D(71,67,68,52)          0.0            estimate D2E/DX2                !
 ! D170  D(71,67,68,69)        180.0            estimate D2E/DX2                !
 ! D171  D(52,68,69,65)        180.0            estimate D2E/DX2                !
 ! D172  D(67,68,69,65)          0.0            estimate D2E/DX2                !
 ! D173  D(66,70,79,80)         61.3681         estimate D2E/DX2                !
 ! D174  D(66,70,79,81)        -61.3681         estimate D2E/DX2                !
 ! D175  D(66,70,79,82)        180.0            estimate D2E/DX2                !
 ! D176  D(65,72,73,74)        180.0            estimate D2E/DX2                !
 ! D177  D(65,72,73,77)          0.0            estimate D2E/DX2                !
 ! D178  D(76,72,73,74)          0.0            estimate D2E/DX2                !
 ! D179  D(76,72,73,77)        180.0            estimate D2E/DX2                !
 ! D180  D(65,72,76,75)        180.0            estimate D2E/DX2                !
 ! D181  D(73,72,76,75)          0.0            estimate D2E/DX2                !
 ! D182  D(72,73,74,75)          0.0            estimate D2E/DX2                !
 ! D183  D(72,73,74,78)        180.0            estimate D2E/DX2                !
 ! D184  D(77,73,74,75)        180.0            estimate D2E/DX2                !
 ! D185  D(77,73,74,78)          0.0            estimate D2E/DX2                !
 ! D186  D(72,73,77,114)       180.0            estimate D2E/DX2                !
 ! D187  D(74,73,77,114)         0.0            estimate D2E/DX2                !
 ! D188  D(73,74,75,4)         180.0            estimate D2E/DX2                !
 ! D189  D(73,74,75,76)          0.0            estimate D2E/DX2                !
 ! D190  D(78,74,75,4)           0.0            estimate D2E/DX2                !
 ! D191  D(78,74,75,76)        180.0            estimate D2E/DX2                !
 ! D192  D(4,75,76,72)         180.0            estimate D2E/DX2                !
 ! D193  D(74,75,76,72)          0.0            estimate D2E/DX2                !
 ! D194  D(73,77,114,115)      -60.0011         estimate D2E/DX2                !
 ! D195  D(73,77,114,116)       59.9989         estimate D2E/DX2                !
 ! D196  D(73,77,114,117)      179.9989         estimate D2E/DX2                !
 ! D197  D(6,83,86,87)         -59.9809         estimate D2E/DX2                !
 ! D198  D(6,83,86,88)          60.0192         estimate D2E/DX2                !
 ! D199  D(6,83,86,89)        -179.9808         estimate D2E/DX2                !
 ! D200  D(84,83,86,87)       -179.9808         estimate D2E/DX2                !
 ! D201  D(84,83,86,88)        -59.9808         estimate D2E/DX2                !
 ! D202  D(84,83,86,89)         60.0192         estimate D2E/DX2                !
 ! D203  D(85,83,86,87)         60.0191         estimate D2E/DX2                !
 ! D204  D(85,83,86,88)       -179.9809         estimate D2E/DX2                !
 ! D205  D(85,83,86,89)        -59.9809         estimate D2E/DX2                !
 ! D206  D(83,86,89,90)        -59.9424         estimate D2E/DX2                !
 ! D207  D(83,86,89,91)         60.0576         estimate D2E/DX2                !
[...]
       Atomic Center   89 is at   4.961194  5.189312  0.000065
       Atomic Center   90 is at   4.381043  5.502330 -0.877343
       Atomic Center   91 is at   4.381142  5.502146  0.877604
       Atomic Center   92 is at   6.307672  5.922368  0.000066
       Atomic Center   93 is at   6.888311  5.609613 -0.877032
       Atomic Center   94 is at   6.888409  5.609434  0.877035
       Atomic Center   95 is at   6.173604  7.449240  0.000229
       Atomic Center   96 is at   5.591844  7.761421 -0.876631
       Atomic Center   97 is at   5.591947  7.761243  0.877221
       Atomic Center   98 is at   7.519857  8.182332  0.000224
       Atomic Center   99 is at   8.101457  7.869896 -0.876686
       Atomic Center  100 is at   8.101559  7.869721  0.877005
       Atomic Center  101 is at   7.387999  9.709621  0.000384
       Atomic Center  102 is at   6.806369 10.022174  0.877273
       Atomic Center  103 is at   6.806263 10.022349 -0.876372
       Atomic Center  104 is at   8.734234 10.442374  0.000376
       Atomic Center  105 is at   9.316548 10.130477 -0.876489
       Atomic Center  106 is at   9.316654 10.130303  0.877109
       Atomic Center  107 is at   8.604194 11.969861  0.000535
       Atomic Center  108 is at   8.023025 12.281902  0.876785
       Atomic Center  109 is at   8.022917 12.282075 -0.875582
       Atomic Center  110 is at   9.954137 12.692823  0.000524
       Atomic Center  111 is at  10.544485 12.428152 -0.882345
       Atomic Center  112 is at   9.826497 13.778794  0.000639
       Atomic Center  113 is at  10.544593 12.427978  0.883268
       Atomic Center  114 is at  -3.764358 -2.951024  0.000024
       Atomic Center  115 is at  -3.180711 -3.221036 -0.889141
       Atomic Center  116 is at  -3.180711 -3.220950  0.889216
       Atomic Center  117 is at  -5.106955 -3.663252  0.000056
       Atomic Center  118 is at  -5.673460 -3.339263  0.879277
       Atomic Center  119 is at  -5.673460 -3.339338 -0.879193
       Atomic Center  120 is at  -4.961247 -5.189245  0.000120
       Atomic Center  121 is at  -4.381152 -5.502225 -0.877338
       Atomic Center  122 is at  -4.381154 -5.502152  0.877606
       Atomic Center  123 is at  -6.307744 -5.922269  0.000149
       Atomic Center  124 is at  -6.888421 -5.609446 -0.876900
       Atomic Center  125 is at  -6.888425 -5.609371  0.877168
       Atomic Center  126 is at  -6.173722 -7.449145  0.000214
       Atomic Center  127 is at  -5.592019 -7.761292 -0.876696
       Atomic Center  128 is at  -5.592028 -7.761218  0.877155
       Atomic Center  129 is at  -7.519998 -8.182193  0.000238
       Atomic Center  130 is at  -8.101634 -7.869687 -0.876624
       Atomic Center  131 is at  -8.101643 -7.869614  0.877068
       Atomic Center  132 is at  -7.388193 -9.709487  0.000302
       Atomic Center  133 is at  -6.806516-10.022185 -0.876504
       Atomic Center  134 is at  -6.806526-10.022112  0.877141
       Atomic Center  135 is at  -8.734454-10.442190  0.000325
       Atomic Center  136 is at  -9.316805-10.130221 -0.876490
       Atomic Center  137 is at  -9.316814-10.130149  0.877109
       Atomic Center  138 is at  -8.604472-11.969682  0.000389
       Atomic Center  139 is at  -8.023255-12.281868 -0.875779
       Atomic Center  140 is at  -8.023265-12.281796  0.876588
       Atomic Center  141 is at  -9.954441-12.692594  0.000411
       Atomic Center  142 is at -10.544829-12.427849 -0.882410
       Atomic Center  143 is at  -9.826843-13.778569  0.000456
       Atomic Center  144 is at -10.544839-12.427777  0.883204
   76610 points will be used for fitting atomic charges
 Fitting point charges to electrostatic potential
 Charges from ESP fit, RMS=   0.00354 RRMS=   0.28666:
 ESP charges:
               1
     1  C    0.009408
     2  C    0.232391
     3  C   -0.354513
     4  C    0.117059
     5  S   -0.203206
     6  O   -0.207547
     7  H    0.227617
     8  C   -0.007135
     9  C    0.233213
    10  C   -0.355052
    11  C    0.123987
    12  S   -0.194125
    13  O   -0.181762
    14  H    0.234957
    15  C    0.005546
    16  H    0.080799
    17  H    0.033908
    18  H    0.033914
    19  C    0.020994
    20  C    0.251513
    21  C   -0.307998
    22  C    0.074731
    23  S   -0.188600
    24  O   -0.271471
    25  H    0.210252
    26  C   -0.114459
    27  C    0.308147
    28  C   -0.265900
    29  C   -0.184634
    30  S   -0.016018
    31  O   -0.194336
    32  H    0.146003
    33  C    0.086568
    34  H    0.020369
    35  H    0.020384
    36  H    0.063198
    37  C   -0.046714
    38  H    0.091070
    39  H    0.053858
    40  H    0.053869
    41  H    0.177431
    42  C   -0.114559
    43  C    0.308205
    44  C   -0.265932
    45  C   -0.184650
    46  S   -0.015992
    47  O   -0.194295
    48  H    0.146010
    49  C    0.021065
    50  C    0.251521
    51  C   -0.308056
    52  C    0.074872
    53  S   -0.188679
    54  O   -0.271497
    55  H    0.210256
    56  C   -0.046778
    57  H    0.053879
    58  H    0.053874
    59  H    0.091081
    60  C    0.086559
    61  H    0.063206
    62  H    0.020391
    63  H    0.020378
    64  H    0.177445
    65  C   -0.007116
    66  C    0.233164
    67  C   -0.354989
    68  C    0.123851
    69  S   -0.194078
    70  O   -0.181720
    71  H    0.234960
    72  C    0.009398
    73  C    0.232412
    74  C   -0.354569
    75  C    0.117185
    76  S   -0.203249
    77  O   -0.207567
    78  H    0.227623
    79  C    0.005524
    80  H    0.033916
    81  H    0.033910
    82  H    0.080803
    83  C    0.074144
    84  H    0.011714
    85  H    0.011712
    86  C    0.127941
    87  H   -0.009923
    88  H   -0.009918
    89  C   -0.026094
    90  H    0.000234
    91  H    0.000255
    92  C    0.007287
    93  H   -0.012817
    94  H   -0.012819
    95  C    0.086750
    96  H   -0.028681
    97  H   -0.028724
    98  C    0.056633
    99  H   -0.024381
   100  H   -0.024348
   101  C    0.012610
   102  H   -0.019246
   103  H   -0.019358
   104  C    0.030582
   105  H   -0.019476
   106  H   -0.019540
   107  C    0.197215
   108  H   -0.050925
   109  H   -0.050842
   110  C   -0.141743
   111  H    0.020012
   112  H    0.023966
   113  H    0.020039
   114  C    0.074162
   115  H    0.011699
   116  H    0.011716
   117  C    0.127972
   118  H   -0.009931
   119  H   -0.009935
   120  C   -0.026151
   121  H    0.000259
   122  H    0.000252
   123  C    0.007360
   124  H   -0.012832
   125  H   -0.012827
   126  C    0.086762
   127  H   -0.028706
   128  H   -0.028702
   129  C    0.056373
   130  H   -0.024311
   131  H   -0.024307
   132  C    0.012908
   133  H   -0.019365
   134  H   -0.019357
   135  C    0.030762
   136  H   -0.019564
   137  H   -0.019566
   138  C    0.196962
   139  H   -0.050835
   140  H   -0.050814
   141  C   -0.142134
   142  H    0.020148
   143  H    0.024106
   144  H    0.020157
 Sum of ESP charges =   0.00000
 ESP charges with hydrogens summed into heavy atoms:
               1
     1  C    0.009408
     2  C    0.232391
     3  C   -0.126895
     4  C    0.117059
     5  S   -0.203206
     6  O   -0.207547
     8  C   -0.007135
     9  C    0.233213
    10  C   -0.120095
    11  C    0.123987
    12  S   -0.194125
    13  O   -0.181762
    15  C    0.154168
    19  C    0.020994
    20  C    0.251513
    21  C   -0.097745
    22  C    0.074731
    23  S   -0.188600
    24  O   -0.271471
    26  C   -0.114459
    27  C    0.308147
    28  C   -0.119898
    29  C   -0.007203
    30  S   -0.016018
    31  O   -0.194336
    33  C    0.190519
    37  C    0.152083
    42  C   -0.114559
    43  C    0.308205
    44  C   -0.119922
    45  C   -0.007204
    46  S   -0.015992
    47  O   -0.194295
    49  C    0.021065
    50  C    0.251521
    51  C   -0.097800
    52  C    0.074872
    53  S   -0.188679
    54  O   -0.271497
    56  C    0.152057
    60  C    0.190534
    65  C   -0.007116
    66  C    0.233164
    67  C   -0.120029
    68  C    0.123851
    69  S   -0.194078
    70  O   -0.181720
    72  C    0.009398
    73  C    0.232412
    74  C   -0.126946
    75  C    0.117185
    76  S   -0.203249
    77  O   -0.207567
    79  C    0.154152
    83  C    0.097570
    86  C    0.108100
    89  C   -0.025605
    92  C   -0.018349
    95  C    0.029345
    98  C    0.007905
   101  C   -0.025994
   104  C   -0.008434
   107  C    0.095448
   110  C   -0.077725
   114  C    0.097577
   117  C    0.108106
   120  C   -0.025641
   123  C   -0.018299
   126  C    0.029353
   129  C    0.007755
   132  C   -0.025814
   135  C   -0.008369
   138  C    0.095313
   141  C   -0.077723
 Charge=   0.00000 Dipole=     0.0002     0.0002     0.0004 Tot=     0.0005
 -----------------------------------------------------------------

              Electrostatic Properties (Atomic Units)

 -----------------------------------------------------------------
    Center     Electric         -------- Electric Field --------
               Potential          X             Y             Z
 -----------------------------------------------------------------
    1 Atom    -14.746825
    2 Atom    -14.718342
    3 Atom    -14.779125
    4 Atom    -14.744578
    5 Atom    -59.229431
    6 Atom    -22.342150
    7 Atom     -1.095539
    8 Atom    -14.746264
    9 Atom    -14.718038
   10 Atom    -14.778028
   11 Atom    -14.743822
   12 Atom    -59.228738
   13 Atom    -22.338745
   14 Atom     -1.093995
   15 Atom    -14.717201
   16 Atom     -1.102661
   17 Atom     -1.104325
   18 Atom     -1.104325
   19 Atom    -14.747203
   20 Atom    -14.718760
   21 Atom    -14.778453
   22 Atom    -14.743956
   23 Atom    -59.228565
   24 Atom    -22.339785
   25 Atom     -1.094421
   26 Atom    -14.747796
   27 Atom    -14.719250
   28 Atom    -14.776413
   29 Atom    -14.758636
   30 Atom    -59.226685
   31 Atom    -22.339016
   32 Atom     -1.094111
   33 Atom    -14.718133
   34 Atom     -1.105233
   35 Atom     -1.105233
   36 Atom     -1.103732
   37 Atom    -14.716295
   38 Atom     -1.101923
   39 Atom     -1.103517
   40 Atom     -1.103517
   41 Atom     -1.086968
   42 Atom    -14.747796
   43 Atom    -14.719250
   44 Atom    -14.776413
   45 Atom    -14.758637
   46 Atom    -59.226685
   47 Atom    -22.339017
   48 Atom     -1.094111
   49 Atom    -14.747203
   50 Atom    -14.718760
   51 Atom    -14.778452
   52 Atom    -14.743955
   53 Atom    -59.228564
   54 Atom    -22.339785
   55 Atom     -1.094421
   56 Atom    -14.716295
   57 Atom     -1.103517
   58 Atom     -1.103517
   59 Atom     -1.101923
   60 Atom    -14.718132
   61 Atom     -1.103732
   62 Atom     -1.105233
   63 Atom     -1.105233
   64 Atom     -1.086968
   65 Atom    -14.746265
   66 Atom    -14.718038
   67 Atom    -14.778029
   68 Atom    -14.743822
   69 Atom    -59.228739
   70 Atom    -22.338745
   71 Atom     -1.093996
   72 Atom    -14.746825
   73 Atom    -14.718341
   74 Atom    -14.779124
   75 Atom    -14.744578
   76 Atom    -59.229430
   77 Atom    -22.342149
   78 Atom     -1.095539
   79 Atom    -14.717201
   80 Atom     -1.104325
   81 Atom     -1.104325
   82 Atom     -1.102661
   83 Atom    -14.716977
   84 Atom     -1.113284
   85 Atom     -1.113282
   86 Atom    -14.773655
   87 Atom     -1.125536
   88 Atom     -1.125535
   89 Atom    -14.772534
   90 Atom     -1.126406
   91 Atom     -1.126406
   92 Atom    -14.777209
   93 Atom     -1.130601
   94 Atom     -1.130601
   95 Atom    -14.779647
   96 Atom     -1.132522
   97 Atom     -1.132523
   98 Atom    -14.780975
   99 Atom     -1.133899
  100 Atom     -1.133899
  101 Atom    -14.782032
  102 Atom     -1.134832
  103 Atom     -1.134832
  104 Atom    -14.782928
  105 Atom     -1.135443
  106 Atom     -1.135443
  107 Atom    -14.780743
  108 Atom     -1.136200
  109 Atom     -1.136200
  110 Atom    -14.788600
  111 Atom     -1.131134
  112 Atom     -1.130533
  113 Atom     -1.131134
  114 Atom    -14.716976
  115 Atom     -1.113285
  116 Atom     -1.113285
  117 Atom    -14.773654
  118 Atom     -1.125536
  119 Atom     -1.125536
  120 Atom    -14.772534
  121 Atom     -1.126406
  122 Atom     -1.126406
  123 Atom    -14.777208
  124 Atom     -1.130601
  125 Atom     -1.130601
  126 Atom    -14.779647
  127 Atom     -1.132522
  128 Atom     -1.132522
  129 Atom    -14.780975
  130 Atom     -1.133899
  131 Atom     -1.133899
  132 Atom    -14.782032
  133 Atom     -1.134832
  134 Atom     -1.134832
  135 Atom    -14.782928
  136 Atom     -1.135443
  137 Atom     -1.135443
  138 Atom    -14.780743
  139 Atom     -1.136200
  140 Atom     -1.136200
  141 Atom    -14.788600
  142 Atom     -1.131134
  143 Atom     -1.130533
  144 Atom     -1.131134
 -----------------------------------------------------------------
 Leave Link  602 at Mon Jan 20 21:43:39 2020, MaxMem=  6710886400 cpu:             163.3 elap:              20.4
 (Enter /apps/gaussian/g16-a03/l9999.exe)
 1\1\GINC-CX1-141-15-2\FOpt\RB3LYP\6-311G(d,p)\C58H70O8S8\NS5018\20-Jan
 -2020\0\\#p opt b3lyp/6-311g(d,p) pop=chelpg\\O3G_4m_0sc_opt_pop.gjf\\
 0,1\C,3.3877648563,0.610429542,0.0003436591\C,2.6641266053,1.800411726
 4,0.0009443172\C,1.2622115558,1.6324361553,0.0007953556\C,0.8712802468
 ,0.3077470042,0.0000748639\S,2.267476451,-0.749800002,-0.0003881121\O,
 3.3337929484,2.9849588171,0.0015610878\H,0.556154144,2.4499253233,0.00
 11773043\C,4.8095307705,0.4401733677,0.0002970075\C,5.5307110599,-0.75
 06012622,-0.000301079\C,6.9330856468,-0.5880986382,-0.0001405389\C,7.3
 275080007,0.735076011,0.00058733\S,5.9341343639,1.7962382277,0.0010242
 857\O,4.8557748106,-1.9331692846,-0.0009484291\H,7.6366404677,-1.40796
 32686,-0.0005207683\C,5.6159798452,-3.1343006646,-0.0015843897\H,4.891
 6519603,-3.9470595625,-0.0020510032\H,6.2433632596,-3.2070343924,-0.89
 65155585\H,6.243309479,-3.208015768,0.8933043483\C,11.1790631342,1.563
 2008326,0.0012763806\C,10.46177521,2.7527407927,0.0019059989\C,9.05745
 21314,2.5918199134,0.0017355639\C,8.6627890052,1.2692547007,0.00096746
 22\S,10.0560833794,0.2081478957,0.0004539516\O,11.1381580437,3.9347426
 683,0.0026089177\H,8.3547251753,3.4123587393,0.002158585\C,12.60665399
 55,1.3898073451,0.0012573936\C,13.3225134935,0.1999825432,0.00062506\C
 ,14.7351479909,0.3679946997,0.0007970698\C,15.096062168,1.6850238913,0
 .0015587467\S,13.7314588175,2.7435632391,0.0020867282\O,12.6494160548,
 -0.9854199801,-0.0000822749\H,15.4477002708,-0.4439161679,0.000376638\
 C,10.3798971018,5.1372217543,0.0032371248\H,9.752590362,5.2111917793,0
 .8981181485\H,9.7526924885,5.2121910793,-0.8916322921\H,11.1057205212,
 5.9486162831,0.0037317402\C,13.412585591,-2.1837740718,-0.0007196102\H
 ,12.6909796032,-2.9990409735,-0.0012211648\H,14.0404390859,-2.25596832
 97,-0.895601923\H,14.0403411936,-2.2569826894,0.8941490001\H,16.092770
 903,2.0978479262,0.0018443011\C,-12.1967801243,-1.3113071618,-0.001482
 1411\C,-12.9126772341,-0.1215041312,-0.0007652081\C,-14.3253064661,-0.
 289560663,-0.0009425665\C,-14.6861792742,-1.6066009694,-0.0017938523\S
 ,-13.3215425552,-2.6650969475,-0.0023984931\O,-12.2396198037,1.0639207
 129,0.0000192564\H,-15.0378843884,0.5223277356,-0.0004637841\C,-10.769
 1851497,-1.4846656348,-0.001518872\C,-10.0518759068,-2.67419219,-0.002
 2344262\C,-8.6475561345,-2.5132465219,-0.0020666703\C,-8.2529159569,-1
 .1906740158,-0.0012146254\S,-9.6462293452,-0.1295913694,-0.0006005827\
 O,-10.7282404619,-3.8562044252,-0.0030152848\H,-7.9448151579,-3.333773
 1182,-0.0025564776\C,-13.0028302463,2.26224894,0.000739878\H,-13.63068
 21696,2.334361905,0.8956298661\H,-13.6305923499,2.3354954513,-0.894121
 0522\H,-12.2812522181,3.0775406331,0.0012924944\C,-9.9699612109,-5.058
 671666,-0.0037408242\H,-10.6957724182,-5.8700770525,-0.0042895143\H,-9
 .3426615805,-5.1325653265,-0.8986331983\H,-9.3427470624,-5.133699172,0
 .8911171195\H,-15.6828749807,-2.0194564662,-0.002104226\C,-4.399676706
 6,-0.3615299686,-0.0005177778\C,-5.1208729088,0.8292352785,0.000169950
 1\C,-6.5232424892,0.6667090749,0.0000033638\C,-6.9176450793,-0.6564724
 866,-0.0008195661\S,-5.5242573219,-1.7176132908,-0.0013819756\O,-4.445
 951083,2.0118123931,0.000914477\H,-7.2268109313,1.4865612858,0.0004604
 45\C,-2.9779095236,-0.5317680664,-0.0005579272\C,-2.2542775817,-1.7217
 501061,-0.001237445\C,-0.8523650111,-1.5537740008,-0.0010857228\C,-0.4
 614332972,-0.229082668,-0.0002852613\S,-1.8576270561,0.8284667197,0.00
 03100058\O,-2.9239577712,-2.9062976681,-0.0019799486\H,-0.1463101264,-
 2.371264021,-0.0015573802\C,-5.2061687693,3.212934605,0.0015993721\H,-
 5.833567457,3.2856173254,0.8965242812\H,-5.8334821742,3.286691923,-0.8
 932973911\H,-4.4818442372,4.0256960446,0.0021219963\C,2.57150378,4.196
 0329088,0.0024621875\H,1.9290440086,4.2254862443,-0.8866601285\H,1.929
 1537713,4.2242322775,0.8917032637\C,3.5444104599,5.3636280879,0.003213
 8234\H,4.1914396096,5.2777330354,0.8823613917\H,4.1913578011,5.2789268
 001,-0.8761101171\C,2.8316819932,6.72079431,0.0041666089\H,2.176243002
 5,6.7913513516,-0.873228248\H,2.1763258999,6.7901644125,0.8817179811\C
 ,3.8003173131,7.9091204601,0.004924071\H,4.4561862547,7.8400456016,-0.
 8721863675\H,4.4562667635,7.8388629926,0.8818803023\C,3.0980683517,9.2
 715290864,0.0058744922\H,2.4414577072,9.3407019303,-0.8709731481\H,2.4
 415426431,9.3395228048,0.8828778912\C,4.0664822306,10.4598027252,0.006
 6260074\H,4.7231193912,10.3913873128,-0.8702971184\H,4.7232029619,10.3
 902107615,0.8833939322\C,3.3661212323,11.8234352967,0.0075740541\H,2.7
 094113843,11.8919483567,0.8844748586\H,2.7093250119,11.8931228853,-0.8
 691695258\C,4.3346468485,13.0113880868,0.0083217825\H,4.9917408961,12.
 9437415275,-0.8685550359\H,4.9918270934,12.9425678175,0.8850426513\C,3
 .6358936582,14.3758915605,0.0092693213\H,2.9798037208,14.4441057886,0.
 8855312977\H,2.9797164909,14.4452778524,-0.8668353225\C,4.6115579266,1
 5.5561875467,0.0100101976\H,5.2582059191,15.5352959922,-0.8728429287\H
 ,4.0822094434,16.5129602324,0.0106764546\H,5.2582938008,15.5341151434,
 0.8927702136\C,-2.1617197697,-4.1173890497,-0.0026046194\H,-1.51925172
 1,-4.1457576481,-0.8917586653\H,-1.5193635545,-4.1467458297,0.88659799
 61\C,-3.1346507353,-5.2849682006,-0.0033172738\H,-3.7816914144,-5.2001
 451524,0.8759266194\H,-3.781585785,-5.1991581688,-0.8825431985\C,-2.42
 19610107,-6.6421559871,-0.0040364901\H,-1.7665104735,-6.7116452259,-0.
 8815078323\H,-1.7666181029,-6.7126321369,0.8734365044\C,-3.390626749,-
 7.8304592184,-0.004764451\H,-4.046479342,-7.7602824833,-0.8817999104\H
 ,-4.0465888437,-7.7612681865,0.8722674305\C,-2.6884189298,-9.192889564
 4,-0.0054864548\H,-2.0317959614,-9.2609992681,-0.8824079283\H,-2.03190
 98281,-9.2619874618,0.8714429137\C,-3.6568709135,-10.3811313214,-0.006
 2188307\H,-4.3134906495,-10.3116111893,-0.8830683101\H,-4.3136042022,-
 10.3125997344,0.870623433\C,-2.9565568518,-11.7447883182,-0.0069422994
 \H,-2.2997490828,-11.8134174402,-0.8837605993\H,-2.2998634467,-11.8144
 067159,0.8698836657\C,-3.9251255023,-12.9327054612,-0.0076756293\H,-4.
 5822033224,-12.8639526756,-0.8844786642\H,-4.5823169061,-12.8649426782
 ,0.8691193445\C,-3.2264230168,-14.2972351741,-0.008400783\H,-2.5702352
 743,-14.3655655621,-0.884580434\H,-2.5703488632,-14.3665550564,0.86778
 61982\C,-4.202131997,-15.477493989,-0.0091304306\H,-4.8487660871,-15.4
 554887559,-0.8919667396\H,-3.6728201384,-16.4342870622,-0.0096365571\H
 ,-4.8488802361,-15.4564858971,0.8736465545\\Version=ES64L-G16RevA.03\S
 tate=1-A\HF=-6040.4329355\RMSD=2.678e-09\RMSF=1.574e-06\Dipole=-0.0000
 066,-0.0000177,0.0001416\Quadrupole=14.0652824,30.3588104,-44.4240928,
 -25.8698857,-0.0115094,0.0431254\PG=C01 [X(C58H70O8S8)]\\@


 THE WISE MAN HAS THE POWER TO REASON AWAY
 WHAT A FOOL BELIEVES.
                     - DOOBIE BROTHERS
 Job cpu time:       1 days  8 hours 47 minutes 17.9 seconds.
 Elapsed time:       0 days  4 hours  6 minutes 23.1 seconds.
 File lengths (MBytes):  RWF=   2012 Int=      0 D2E=      0 Chk=    242 Scr=      1
 Normal termination of Gaussian 16 at Mon Jan 20 21:43:39 2020.
