 Entering Gaussian System, Link 0=g16
 Input=OBT_4m_14sc_opt_pop.gjf
 Output=OBT_4m_14sc_opt_pop.log
 Initial command:
 /apps/gaussian/g16-a03/l1.exe "/tmp/pbs.1169454.pbs/Gau-18650.inp" -scrdir="/tmp/pbs.1169454.pbs/"
 Entering Link 1 = /apps/gaussian/g16-a03/l1.exe PID=     18651.
  
 Copyright (c) 1988,1990,1992,1993,1995,1998,2003,2009,2016,
            Gaussian, Inc.  All Rights Reserved.
  
 This is part of the Gaussian(R) 16 program.  It is based on
 the Gaussian(R) 09 system (copyright 2009, Gaussian, Inc.),
 the Gaussian(R) 03 system (copyright 2003, Gaussian, Inc.),
 the Gaussian(R) 98 system (copyright 1998, Gaussian, Inc.),
 the Gaussian(R) 94 system (copyright 1995, Gaussian, Inc.),
 the Gaussian 92(TM) system (copyright 1992, Gaussian, Inc.),
 the Gaussian 90(TM) system (copyright 1990, Gaussian, Inc.),
 the Gaussian 88(TM) system (copyright 1988, Gaussian, Inc.),
 the Gaussian 86(TM) system (copyright 1986, Carnegie Mellon
 University), and the Gaussian 82(TM) system (copyright 1983,
 Carnegie Mellon University). Gaussian is a federally registered
 trademark of Gaussian, Inc.
  
 This software contains proprietary and confidential information,
 including trade secrets, belonging to Gaussian, Inc.
  
 This software is provided under written license and may be
 used, copied, transmitted, or stored only in accord with that
 written license.
  
 The following legend is applicable only to US Government
 contracts under FAR:
  
                    RESTRICTED RIGHTS LEGEND
  
 Use, reproduction and disclosure by the US Government is
 subject to restrictions as set forth in subparagraphs (a)
 and (c) of the Commercial Computer Software - Restricted
 Rights clause in FAR 52.227-19.
  
 Gaussian, Inc.
 340 Quinnipiac St., Bldg. 40, Wallingford CT 06492
  
  
 ---------------------------------------------------------------
 Warning -- This program may not be used in any manner that
 competes with the business of Gaussian, Inc. or will provide
 assistance to any competitor of Gaussian, Inc.  The licensee
 of this program is prohibited from giving any competitor of
 Gaussian, Inc. access to this program.  By using this program,
 the user acknowledges that Gaussian, Inc. is engaged in the
 business of creating and licensing software in the field of
 computational chemistry and represents and warrants to the
 licensee that it is not a competitor of Gaussian, Inc. and that
 it will not use this program in any manner prohibited above.
 ---------------------------------------------------------------
  

 Cite this work as:
 Gaussian 16, Revision A.03,
 M. J. Frisch, G. W. Trucks, H. B. Schlegel, G. E. Scuseria, 
 M. A. Robb, J. R. Cheeseman, G. Scalmani, V. Barone, 
 G. A. Petersson, H. Nakatsuji, X. Li, M. Caricato, A. V. Marenich, 
 J. Bloino, B. G. Janesko, R. Gomperts, B. Mennucci, H. P. Hratchian, 
 J. V. Ortiz, A. F. Izmaylov, J. L. Sonnenberg, D. Williams-Young, 
 F. Ding, F. Lipparini, F. Egidi, J. Goings, B. Peng, A. Petrone, 
 T. Henderson, D. Ranasinghe, V. G. Zakrzewski, J. Gao, N. Rega, 
 G. Zheng, W. Liang, M. Hada, M. Ehara, K. Toyota, R. Fukuda, 
 J. Hasegawa, M. Ishida, T. Nakajima, Y. Honda, O. Kitao, H. Nakai, 
 T. Vreven, K. Throssell, J. A. Montgomery, Jr., J. E. Peralta, 
 F. Ogliaro, M. J. Bearpark, J. J. Heyd, E. N. Brothers, K. N. Kudin, 
 V. N. Staroverov, T. A. Keith, R. Kobayashi, J. Normand, 
 K. Raghavachari, A. P. Rendell, J. C. Burant, S. S. Iyengar, 
 J. Tomasi, M. Cossi, J. M. Millam, M. Klene, C. Adamo, R. Cammi, 
 J. W. Ochterski, R. L. Martin, K. Morokuma, O. Farkas, 
 J. B. Foresman, and D. J. Fox, Gaussian, Inc., Wallingford CT, 2016.
 
 ******************************************
 Gaussian 16:  ES64L-G16RevA.03 25-Dec-2016
                 4-Mar-2020 
 ******************************************
 %mem=50GB
 %nprocshared=8
 Will use up to    8 processors via shared memory.
 -----------------------------------
 #p opt b3lyp/6-311g(d,p) pop=chelpg
 -----------------------------------
 1/18=20,19=15,26=3,38=1/1,3;
 2/9=110,12=2,17=6,18=5,40=1/2;
 3/5=4,6=6,7=101,11=2,25=1,30=1,71=1,74=-5/1,2,3;
 4//1;
 5/5=2,38=5/2;
 6/7=2,8=2,9=2,10=2,15=8,20=3,28=1/1,2;
 7//1,2,3,16;
 1/18=20,19=15,26=3/3(2);
 2/9=110/2;
 99//99;
 2/9=110/2;
 3/5=4,6=6,7=101,11=2,25=1,30=1,71=1,74=-5/1,2,3;
 4/5=5,16=3,69=1/1;
 5/5=2,38=5/2;
 7//1,2,3,16;
 1/18=20,19=15,26=3/3(-5);
 2/9=110/2;
 6/7=2,8=2,9=2,10=2,15=8,19=2,20=3,28=1/1,2;
 99/9=1/99;
 Leave Link    1 at Wed Mar  4 08:01:04 2020, MaxMem=  6710886400 cpu:               0.4 elap:               0.1
 (Enter /apps/gaussian/g16-a03/l101.exe)
 ----------------------
 O3G_4m_0sc_opt_pop.gjf
 ----------------------
 Symbolic Z-matrix:
 Charge =  0 Multiplicity = 1
 C                     3.162    -0.677     0. 
 C                     2.943     0.699     0. 
 C                     1.582     1.074     0. 
 C                     0.718    -0.004     0. 
 S                     1.61     -1.511     0. 
 O                     4.011     1.542     0. 
 H                     1.238     2.098     0. 
 C                     4.414    -1.373     0. 
 C                     4.63     -2.748     0. 
 C                     5.99     -3.128     0. 
 C                     6.856    -2.053     0. 
 S                     5.968    -0.543     0. 
 O                     3.558    -3.587     0. 
 H                     6.33     -4.154     0. 
 C                     3.806    -4.986     0. 
 H                     2.828    -5.464     0. 
 H                     4.359    -5.292    -0.895 
 H                     4.359    -5.292     0.895 
 C                     10.734   -2.745     0. 
 C                     10.521   -1.372     0. 
 C                     9.16     -0.99      0. 
 C                     8.294    -2.064     0. 
 S                     9.182    -3.574     0. 
 O                     11.594   -0.535     0. 
 H                     8.82      0.036     0. 
 C                     11.99    -3.446     0. 
 C                     12.202   -4.818     0. 
 C                     13.573   -5.198     0. 
 C                     14.405   -4.115     0. 
 S                     13.543   -2.619     0. 
 O                     11.13    -5.661     0. 
 H                     13.925   -6.219     0. 
 C                     11.348    0.865     0. 
 H                     10.795    1.172     0.895 
 H                     10.795    1.172    -0.895 
 H                     12.327    1.342     0. 
 C                     11.382   -7.059     0. 
 H                     10.406   -7.54      0. 
 H                     11.936   -7.364    -0.895 
 H                     11.936   -7.364     0.895 
 H                     15.484   -4.111     0. 
 C                    -11.99     3.446     0. 
 C                    -12.202    4.818     0. 
 C                    -13.573    5.198     0. 
 C                    -14.405    4.115     0. 
 S                    -13.543    2.619     0. 
 O                    -11.13     5.661     0. 
 H                    -13.925    6.219     0. 
 C                    -10.734    2.745     0. 
 C                    -10.521    1.372     0. 
 C                    -9.16      0.99      0. 
 C                    -8.294     2.064     0. 
 S                    -9.182     3.574     0. 
 O                    -11.594    0.535     0. 
 H                    -8.82     -0.036     0. 
 C                    -11.382    7.059     0. 
 H                    -11.936    7.364     0.895 
 H                    -11.936    7.364    -0.895 
 H                    -10.406    7.54      0. 
 C                    -11.348   -0.866     0. 
 H                    -12.327   -1.342     0. 
 H                    -10.795   -1.172    -0.895 
 H                    -10.795   -1.172     0.895 
 H                    -15.484    4.111     0. 
 C                    -4.413     1.373     0. 
 C                    -4.63      2.748     0. 
 C                    -5.99      3.128     0. 
 C                    -6.856     2.053     0. 
 S                    -5.968     0.543     0. 
 O                    -3.558     3.587     0. 
 H                    -6.33      4.154     0. 
 C                    -3.162     0.677     0. 
 C                    -2.943    -0.699     0. 
 C                    -1.582    -1.074     0. 
 C                    -0.718     0.004     0. 
 S                    -1.61      1.511     0. 
 O                    -4.011    -1.541     0. 
 H                    -1.238    -2.098     0. 
 C                    -3.806     4.986     0. 
 H                    -4.359     5.292     0.895 
 H                    -4.359     5.292    -0.895 
 H                    -2.828     5.464     0. 
 C                     3.764     2.951     0. 
 H                     3.181     3.221    -0.889 
 H                     3.181     3.221     0.889 
 C                     5.107     3.663     0. 
 H                     5.674     3.339     0.879 
 H                     5.673     3.339    -0.879 
 C                     4.961     5.189     0. 
 H                     4.381     5.502    -0.877 
 H                     4.381     5.502     0.878 
 C                     6.308     5.922     0. 
 H                     6.888     5.61     -0.877 
 H                     6.888     5.609     0.877 
 C                     6.174     7.449     0. 
 H                     5.592     7.761    -0.877 
 H                     5.592     7.761     0.877 
 C                     7.52      8.182     0. 
 H                     8.101     7.87     -0.877 
 H                     8.102     7.87      0.877 
 C                     7.388     9.71      0. 
 H                     6.806     10.022    0.877 
 H                     6.806     10.022   -0.876 
 C                     8.734     10.442    0. 
 H                     9.317     10.13    -0.876 
 H                     9.317     10.13     0.877 
 C                     8.604     11.97     0.001 
 H                     8.023     12.282    0.877 
 H                     8.023     12.282   -0.876 
 C                     9.954     12.693    0.001 
 H                     10.544    12.428   -0.882 
 H                     10.545    12.428    0.883 
 C                     9.774     14.222    0.001 
 H                     9.233     14.518   -0.874 
 H                     9.23      14.517    0.873 
 C                     11.156    14.902    0.004 
 H                     11.701    14.606   -0.869 
 H                     11.697    14.606    0.878 
 C                     10.977    16.431    0.003 
 H                     10.432    16.727    0.875 
 H                     10.436    16.726   -0.872 
 C                     12.359    17.11     0.006 
 H                     12.903    16.815   -0.867 
 H                     12.234    18.173    0.005 
 H                     12.899    16.815    0.881 
 C                    -3.764    -2.951     0. 
 H                    -3.181    -3.221    -0.889 
 H                    -3.181    -3.221     0.889 
 C                    -5.107    -3.663     0. 
 H                    -5.673    -3.339     0.879 
 H                    -5.673    -3.339    -0.879 
 C                    -4.961    -5.189     0. 
 H                    -4.381    -5.502    -0.877 
 H                    -4.381    -5.502     0.878 
 C                    -6.308    -5.922     0. 
 H                    -6.888    -5.609    -0.877 
 H                    -6.888    -5.609     0.877 
 C                    -6.174    -7.449     0. 
 H                    -5.592    -7.761    -0.877 
 H                    -5.592    -7.761     0.877 
 C                    -7.52     -8.182     0. 
 H                    -8.102    -7.87     -0.877 
 H                    -8.102    -7.87      0.877 
 C                    -7.388    -9.709     0. 
 H                    -6.807    -10.022   -0.877 
 H                    -6.807    -10.022    0.877 
 C                    -8.734    -10.442    0. 
 H                    -9.317    -10.13    -0.876 
 H                    -9.317    -10.13     0.877 
 C                    -8.604    -11.97     0. 
 H                    -8.023    -12.282   -0.876 
 H                    -8.023    -12.282    0.877 
 C                    -9.954    -12.693    0. 
 H                    -10.545   -12.428   -0.882 
 H                    -10.545   -12.428    0.883 
 C                    -9.775    -14.222    0. 
 H                    -9.234    -14.518   -0.874 
 H                    -9.23     -14.517    0.873 
 C                    -11.157   -14.901    0.004 
 H                    -11.697   -14.606    0.879 
 H                    -11.702   -14.606   -0.868 
 C                    -10.977   -16.431    0.003 
 H                    -10.432   -16.726    0.875 
 H                    -10.437   -16.726   -0.872 
 C                    -12.359   -17.11     0.006 
 H                    -12.234   -18.173    0.006 
 H                    -12.9     -16.815    0.881 
 H                    -12.904   -16.814   -0.866 
 
 ITRead=  0  0  0  0  0  0  0  0  0  0  0  0  0  0  0  0  0  0  0  0
 ITRead=  0  0  0  0  0  0  0  0  0  0  0  0  0  0  0  0  0  0  0  0
 ITRead=  0  0  0  0  0  0  0  0  0  0  0  0  0  0  0  0  0  0  0  0
 ITRead=  0  0  0  0  0  0  0  0  0  0  0  0  0  0  0  0  0  0  0  0
 ITRead=  0  0  0  0  0  0  0  0  0  0  0  0  0  0  0  0  0  0  0  0
 ITRead=  0  0  0  0  0  0  0  0  0  0  0  0  0  0  0  0  0  0  0  0
 ITRead=  0  0  0  0  0  0  0  0  0  0  0  0  0  0  0  0  0  0  0  0
 ITRead=  0  0  0  0  0  0  0  0  0  0  0  0  0  0  0  0  0  0  0  0
 ITRead=  0  0  0  0  0  0  0  0
 MicOpt= -1 -1 -1 -1 -1 -1 -1 -1 -1 -1 -1 -1 -1 -1 -1 -1 -1 -1 -1 -1
 MicOpt= -1 -1 -1 -1 -1 -1 -1 -1 -1 -1 -1 -1 -1 -1 -1 -1 -1 -1 -1 -1
 MicOpt= -1 -1 -1 -1 -1 -1 -1 -1 -1 -1 -1 -1 -1 -1 -1 -1 -1 -1 -1 -1
 MicOpt= -1 -1 -1 -1 -1 -1 -1 -1 -1 -1 -1 -1 -1 -1 -1 -1 -1 -1 -1 -1
 MicOpt= -1 -1 -1 -1 -1 -1 -1 -1 -1 -1 -1 -1 -1 -1 -1 -1 -1 -1 -1 -1
 MicOpt= -1 -1 -1 -1 -1 -1 -1 -1 -1 -1 -1 -1 -1 -1 -1 -1 -1 -1 -1 -1
 MicOpt= -1 -1 -1 -1 -1 -1 -1 -1 -1 -1 -1 -1 -1 -1 -1 -1 -1 -1 -1 -1
 MicOpt= -1 -1 -1 -1 -1 -1 -1 -1 -1 -1 -1 -1 -1 -1 -1 -1 -1 -1 -1 -1
 MicOpt= -1 -1 -1 -1 -1 -1 -1 -1
 NAtoms=    168 NQM=      168 NQMF=       0 NMMI=      0 NMMIF=      0
                NMic=       0 NMicF=      0.
                    Isotopes and Nuclear Properties:
 (Nuclear quadrupole moments (NQMom) in fm**2, nuclear magnetic moments (NMagM)
  in nuclear magnetons)

  Atom         1           2           3           4           5           6           7           8           9          10
 IAtWgt=          12          12          12          12          32          16           1          12          12          12
 AtmWgt=  12.0000000  12.0000000  12.0000000  12.0000000  31.9720718  15.9949146   1.0078250  12.0000000  12.0000000  12.0000000
 NucSpn=           0           0           0           0           0           0           1           0           0           0
 AtZEff=  -0.0000000  -0.0000000  -0.0000000  -0.0000000  -0.0000000  -0.0000000  -0.0000000  -0.0000000  -0.0000000  -0.0000000
 NQMom=    0.0000000   0.0000000   0.0000000   0.0000000   0.0000000   0.0000000   0.0000000   0.0000000   0.0000000   0.0000000
 NMagM=    0.0000000   0.0000000   0.0000000   0.0000000   0.0000000   0.0000000   2.7928460   0.0000000   0.0000000   0.0000000
 AtZNuc=   6.0000000   6.0000000   6.0000000   6.0000000  16.0000000   8.0000000   1.0000000   6.0000000   6.0000000   6.0000000

  Atom        11          12          13          14          15          16          17          18          19          20
 IAtWgt=          12          32          16           1          12           1           1           1          12          12
 AtmWgt=  12.0000000  31.9720718  15.9949146   1.0078250  12.0000000   1.0078250   1.0078250   1.0078250  12.0000000  12.0000000
 NucSpn=           0           0           0           1           0           1           1           1           0           0
 AtZEff=  -0.0000000  -0.0000000  -0.0000000  -0.0000000  -0.0000000  -0.0000000  -0.0000000  -0.0000000  -0.0000000  -0.0000000
 NQMom=    0.0000000   0.0000000   0.0000000   0.0000000   0.0000000   0.0000000   0.0000000   0.0000000   0.0000000   0.0000000
 NMagM=    0.0000000   0.0000000   0.0000000   2.7928460   0.0000000   2.7928460   2.7928460   2.7928460   0.0000000   0.0000000
 AtZNuc=   6.0000000  16.0000000   8.0000000   1.0000000   6.0000000   1.0000000   1.0000000   1.0000000   6.0000000   6.0000000

  Atom        21          22          23          24          25          26          27          28          29          30
 IAtWgt=          12          12          32          16           1          12          12          12          12          32
 AtmWgt=  12.0000000  12.0000000  31.9720718  15.9949146   1.0078250  12.0000000  12.0000000  12.0000000  12.0000000  31.9720718
 NucSpn=           0           0           0           0           1           0           0           0           0           0
 AtZEff=  -0.0000000  -0.0000000  -0.0000000  -0.0000000  -0.0000000  -0.0000000  -0.0000000  -0.0000000  -0.0000000  -0.0000000
 NQMom=    0.0000000   0.0000000   0.0000000   0.0000000   0.0000000   0.0000000   0.0000000   0.0000000   0.0000000   0.0000000
 NMagM=    0.0000000   0.0000000   0.0000000   0.0000000   2.7928460   0.0000000   0.0000000   0.0000000   0.0000000   0.0000000
 AtZNuc=   6.0000000   6.0000000  16.0000000   8.0000000   1.0000000   6.0000000   6.0000000   6.0000000   6.0000000  16.0000000

  Atom        31          32          33          34          35          36          37          38          39          40
 IAtWgt=          16           1          12           1           1           1          12           1           1           1
 AtmWgt=  15.9949146   1.0078250  12.0000000   1.0078250   1.0078250   1.0078250  12.0000000   1.0078250   1.0078250   1.0078250
 NucSpn=           0           1           0           1           1           1           0           1           1           1
 AtZEff=  -0.0000000  -0.0000000  -0.0000000  -0.0000000  -0.0000000  -0.0000000  -0.0000000  -0.0000000  -0.0000000  -0.0000000
 NQMom=    0.0000000   0.0000000   0.0000000   0.0000000   0.0000000   0.0000000   0.0000000   0.0000000   0.0000000   0.0000000
 NMagM=    0.0000000   2.7928460   0.0000000   2.7928460   2.7928460   2.7928460   0.0000000   2.7928460   2.7928460   2.7928460
 AtZNuc=   8.0000000   1.0000000   6.0000000   1.0000000   1.0000000   1.0000000   6.0000000   1.0000000   1.0000000   1.0000000

  Atom        41          42          43          44          45          46          47          48          49          50
 IAtWgt=           1          12          12          12          12          32          16           1          12          12
 AtmWgt=   1.0078250  12.0000000  12.0000000  12.0000000  12.0000000  31.9720718  15.9949146   1.0078250  12.0000000  12.0000000
 NucSpn=           1           0           0           0           0           0           0           1           0           0
 AtZEff=  -0.0000000  -0.0000000  -0.0000000  -0.0000000  -0.0000000  -0.0000000  -0.0000000  -0.0000000  -0.0000000  -0.0000000
 NQMom=    0.0000000   0.0000000   0.0000000   0.0000000   0.0000000   0.0000000   0.0000000   0.0000000   0.0000000   0.0000000
 NMagM=    2.7928460   0.0000000   0.0000000   0.0000000   0.0000000   0.0000000   0.0000000   2.7928460   0.0000000   0.0000000
 AtZNuc=   1.0000000   6.0000000   6.0000000   6.0000000   6.0000000  16.0000000   8.0000000   1.0000000   6.0000000   6.0000000

  Atom        51          52          53          54          55          56          57          58          59          60
 IAtWgt=          12          12          32          16           1          12           1           1           1          12
 AtmWgt=  12.0000000  12.0000000  31.9720718  15.9949146   1.0078250  12.0000000   1.0078250   1.0078250   1.0078250  12.0000000
 NucSpn=           0           0           0           0           1           0           1           1           1           0
 AtZEff=  -0.0000000  -0.0000000  -0.0000000  -0.0000000  -0.0000000  -0.0000000  -0.0000000  -0.0000000  -0.0000000  -0.0000000
 NQMom=    0.0000000   0.0000000   0.0000000   0.0000000   0.0000000   0.0000000   0.0000000   0.0000000   0.0000000   0.0000000
 NMagM=    0.0000000   0.0000000   0.0000000   0.0000000   2.7928460   0.0000000   2.7928460   2.7928460   2.7928460   0.0000000
 AtZNuc=   6.0000000   6.0000000  16.0000000   8.0000000   1.0000000   6.0000000   1.0000000   1.0000000   1.0000000   6.0000000

  Atom        61          62          63          64          65          66          67          68          69          70
 IAtWgt=           1           1           1           1          12          12          12          12          32          16
 AtmWgt=   1.0078250   1.0078250   1.0078250   1.0078250  12.0000000  12.0000000  12.0000000  12.0000000  31.9720718  15.9949146
 NucSpn=           1           1           1           1           0           0           0           0           0           0
 AtZEff=  -0.0000000  -0.0000000  -0.0000000  -0.0000000  -0.0000000  -0.0000000  -0.0000000  -0.0000000  -0.0000000  -0.0000000
 NQMom=    0.0000000   0.0000000   0.0000000   0.0000000   0.0000000   0.0000000   0.0000000   0.0000000   0.0000000   0.0000000
 NMagM=    2.7928460   2.7928460   2.7928460   2.7928460   0.0000000   0.0000000   0.0000000   0.0000000   0.0000000   0.0000000
 AtZNuc=   1.0000000   1.0000000   1.0000000   1.0000000   6.0000000   6.0000000   6.0000000   6.0000000  16.0000000   8.0000000

  Atom        71          72          73          74          75          76          77          78          79          80
 IAtWgt=           1          12          12          12          12          32          16           1          12           1
 AtmWgt=   1.0078250  12.0000000  12.0000000  12.0000000  12.0000000  31.9720718  15.9949146   1.0078250  12.0000000   1.0078250
 NucSpn=           1           0           0           0           0           0           0           1           0           1
 AtZEff=  -0.0000000  -0.0000000  -0.0000000  -0.0000000  -0.0000000  -0.0000000  -0.0000000  -0.0000000  -0.0000000  -0.0000000
 NQMom=    0.0000000   0.0000000   0.0000000   0.0000000   0.0000000   0.0000000   0.0000000   0.0000000   0.0000000   0.0000000
 NMagM=    2.7928460   0.0000000   0.0000000   0.0000000   0.0000000   0.0000000   0.0000000   2.7928460   0.0000000   2.7928460
 AtZNuc=   1.0000000   6.0000000   6.0000000   6.0000000   6.0000000  16.0000000   8.0000000   1.0000000   6.0000000   1.0000000

  Atom        81          82          83          84          85          86          87          88          89          90
 IAtWgt=           1           1          12           1           1          12           1           1          12           1
 AtmWgt=   1.0078250   1.0078250  12.0000000   1.0078250   1.0078250  12.0000000   1.0078250   1.0078250  12.0000000   1.0078250
 NucSpn=           1           1           0           1           1           0           1           1           0           1
 AtZEff=  -0.0000000  -0.0000000  -0.0000000  -0.0000000  -0.0000000  -0.0000000  -0.0000000  -0.0000000  -0.0000000  -0.0000000
 NQMom=    0.0000000   0.0000000   0.0000000   0.0000000   0.0000000   0.0000000   0.0000000   0.0000000   0.0000000   0.0000000
 NMagM=    2.7928460   2.7928460   0.0000000   2.7928460   2.7928460   0.0000000   2.7928460   2.7928460   0.0000000   2.7928460
 AtZNuc=   1.0000000   1.0000000   6.0000000   1.0000000   1.0000000   6.0000000   1.0000000   1.0000000   6.0000000   1.0000000

  Atom        91          92          93          94          95          96          97          98          99         100
 IAtWgt=           1          12           1           1          12           1           1          12           1           1
 AtmWgt=   1.0078250  12.0000000   1.0078250   1.0078250  12.0000000   1.0078250   1.0078250  12.0000000   1.0078250   1.0078250
 NucSpn=           1           0           1           1           0           1           1           0           1           1
 AtZEff=  -0.0000000  -0.0000000  -0.0000000  -0.0000000  -0.0000000  -0.0000000  -0.0000000  -0.0000000  -0.0000000  -0.0000000
 NQMom=    0.0000000   0.0000000   0.0000000   0.0000000   0.0000000   0.0000000   0.0000000   0.0000000   0.0000000   0.0000000
 NMagM=    2.7928460   0.0000000   2.7928460   2.7928460   0.0000000   2.7928460   2.7928460   0.0000000   2.7928460   2.7928460
 AtZNuc=   1.0000000   6.0000000   1.0000000   1.0000000   6.0000000   1.0000000   1.0000000   6.0000000   1.0000000   1.0000000

  Atom       101         102         103         104         105         106         107         108         109         110
 IAtWgt=          12           1           1          12           1           1          12           1           1          12
 AtmWgt=  12.0000000   1.0078250   1.0078250  12.0000000   1.0078250   1.0078250  12.0000000   1.0078250   1.0078250  12.0000000
 NucSpn=           0           1           1           0           1           1           0           1           1           0
 AtZEff=  -0.0000000  -0.0000000  -0.0000000  -0.0000000  -0.0000000  -0.0000000  -0.0000000  -0.0000000  -0.0000000  -0.0000000
 NQMom=    0.0000000   0.0000000   0.0000000   0.0000000   0.0000000   0.0000000   0.0000000   0.0000000   0.0000000   0.0000000
 NMagM=    0.0000000   2.7928460   2.7928460   0.0000000   2.7928460   2.7928460   0.0000000   2.7928460   2.7928460   0.0000000
 AtZNuc=   6.0000000   1.0000000   1.0000000   6.0000000   1.0000000   1.0000000   6.0000000   1.0000000   1.0000000   6.0000000

  Atom       111         112         113         114         115         116         117         118         119         120
 IAtWgt=           1           1          12           1           1          12           1           1          12           1
 AtmWgt=   1.0078250   1.0078250  12.0000000   1.0078250   1.0078250  12.0000000   1.0078250   1.0078250  12.0000000   1.0078250
 NucSpn=           1           1           0           1           1           0           1           1           0           1
 AtZEff=  -0.0000000  -0.0000000  -0.0000000  -0.0000000  -0.0000000  -0.0000000  -0.0000000  -0.0000000  -0.0000000  -0.0000000
 NQMom=    0.0000000   0.0000000   0.0000000   0.0000000   0.0000000   0.0000000   0.0000000   0.0000000   0.0000000   0.0000000
 NMagM=    2.7928460   2.7928460   0.0000000   2.7928460   2.7928460   0.0000000   2.7928460   2.7928460   0.0000000   2.7928460
 AtZNuc=   1.0000000   1.0000000   6.0000000   1.0000000   1.0000000   6.0000000   1.0000000   1.0000000   6.0000000   1.0000000

  Atom       121         122         123         124         125         126         127         128         129         130
 IAtWgt=           1          12           1           1           1          12           1           1          12           1
 AtmWgt=   1.0078250  12.0000000   1.0078250   1.0078250   1.0078250  12.0000000   1.0078250   1.0078250  12.0000000   1.0078250
 NucSpn=           1           0           1           1           1           0           1           1           0           1
 AtZEff=  -0.0000000  -0.0000000  -0.0000000  -0.0000000  -0.0000000  -0.0000000  -0.0000000  -0.0000000  -0.0000000  -0.0000000
 NQMom=    0.0000000   0.0000000   0.0000000   0.0000000   0.0000000   0.0000000   0.0000000   0.0000000   0.0000000   0.0000000
 NMagM=    2.7928460   0.0000000   2.7928460   2.7928460   2.7928460   0.0000000   2.7928460   2.7928460   0.0000000   2.7928460
 AtZNuc=   1.0000000   6.0000000   1.0000000   1.0000000   1.0000000   6.0000000   1.0000000   1.0000000   6.0000000   1.0000000

  Atom       131         132         133         134         135         136         137         138         139         140
 IAtWgt=           1          12           1           1          12           1           1          12           1           1
 AtmWgt=   1.0078250  12.0000000   1.0078250   1.0078250  12.0000000   1.0078250   1.0078250  12.0000000   1.0078250   1.0078250
 NucSpn=           1           0           1           1           0           1           1           0           1           1
 AtZEff=  -0.0000000  -0.0000000  -0.0000000  -0.0000000  -0.0000000  -0.0000000  -0.0000000  -0.0000000  -0.0000000  -0.0000000
 NQMom=    0.0000000   0.0000000   0.0000000   0.0000000   0.0000000   0.0000000   0.0000000   0.0000000   0.0000000   0.0000000
 NMagM=    2.7928460   0.0000000   2.7928460   2.7928460   0.0000000   2.7928460   2.7928460   0.0000000   2.7928460   2.7928460
 AtZNuc=   1.0000000   6.0000000   1.0000000   1.0000000   6.0000000   1.0000000   1.0000000   6.0000000   1.0000000   1.0000000

  Atom       141         142         143         144         145         146         147         148         149         150
 IAtWgt=          12           1           1          12           1           1          12           1           1          12
 AtmWgt=  12.0000000   1.0078250   1.0078250  12.0000000   1.0078250   1.0078250  12.0000000   1.0078250   1.0078250  12.0000000
 NucSpn=           0           1           1           0           1           1           0           1           1           0
 AtZEff=  -0.0000000  -0.0000000  -0.0000000  -0.0000000  -0.0000000  -0.0000000  -0.0000000  -0.0000000  -0.0000000  -0.0000000
 NQMom=    0.0000000   0.0000000   0.0000000   0.0000000   0.0000000   0.0000000   0.0000000   0.0000000   0.0000000   0.0000000
 NMagM=    0.0000000   2.7928460   2.7928460   0.0000000   2.7928460   2.7928460   0.0000000   2.7928460   2.7928460   0.0000000
 AtZNuc=   6.0000000   1.0000000   1.0000000   6.0000000   1.0000000   1.0000000   6.0000000   1.0000000   1.0000000   6.0000000

  Atom       151         152         153         154         155         156         157         158         159         160
 IAtWgt=           1           1          12           1           1          12           1           1          12           1
 AtmWgt=   1.0078250   1.0078250  12.0000000   1.0078250   1.0078250  12.0000000   1.0078250   1.0078250  12.0000000   1.0078250
 NucSpn=           1           1           0           1           1           0           1           1           0           1
 AtZEff=  -0.0000000  -0.0000000  -0.0000000  -0.0000000  -0.0000000  -0.0000000  -0.0000000  -0.0000000  -0.0000000  -0.0000000
 NQMom=    0.0000000   0.0000000   0.0000000   0.0000000   0.0000000   0.0000000   0.0000000   0.0000000   0.0000000   0.0000000
 NMagM=    2.7928460   2.7928460   0.0000000   2.7928460   2.7928460   0.0000000   2.7928460   2.7928460   0.0000000   2.7928460
 AtZNuc=   1.0000000   1.0000000   6.0000000   1.0000000   1.0000000   6.0000000   1.0000000   1.0000000   6.0000000   1.0000000

  Atom       161         162         163         164         165         166         167         168
 IAtWgt=           1          12           1           1          12           1           1           1
 AtmWgt=   1.0078250  12.0000000   1.0078250   1.0078250  12.0000000   1.0078250   1.0078250   1.0078250
 NucSpn=           1           0           1           1           0           1           1           1
 AtZEff=  -0.0000000  -0.0000000  -0.0000000  -0.0000000  -0.0000000  -0.0000000  -0.0000000  -0.0000000
 NQMom=    0.0000000   0.0000000   0.0000000   0.0000000   0.0000000   0.0000000   0.0000000   0.0000000
 NMagM=    2.7928460   0.0000000   2.7928460   2.7928460   0.0000000   2.7928460   2.7928460   2.7928460
 AtZNuc=   1.0000000   6.0000000   1.0000000   1.0000000   6.0000000   1.0000000   1.0000000   1.0000000
 Leave Link  101 at Wed Mar  4 08:01:05 2020, MaxMem=  6710886400 cpu:               7.7 elap:               1.0
 (Enter /apps/gaussian/g16-a03/l103.exe)

 GradGradGradGradGradGradGradGradGradGradGradGradGradGradGradGradGradGrad
 Berny optimization.
 Initialization pass.
                           ----------------------------
                           !    Initial Parameters    !
                           ! (Angstroms and Degrees)  !
 --------------------------                            --------------------------
 ! Name  Definition              Value          Derivative Info.                !
 --------------------------------------------------------------------------------
 ! R1    R(1,2)                  1.3933         estimate D2E/DX2                !
 ! R2    R(1,5)                  1.7619         estimate D2E/DX2                !
 ! R3    R(1,8)                  1.4325         estimate D2E/DX2                !
 ! R4    R(2,3)                  1.4117         estimate D2E/DX2                !
 ! R5    R(2,6)                  1.3606         estimate D2E/DX2                !
 ! R6    R(3,4)                  1.3815         estimate D2E/DX2                !
 ! R7    R(3,7)                  1.0802         estimate D2E/DX2                !
 ! R8    R(4,5)                  1.7512         estimate D2E/DX2                !
 ! R9    R(4,75)                 1.436          estimate D2E/DX2                !
 ! R10   R(6,83)                 1.4305         estimate D2E/DX2                !
 ! R11   R(8,9)                  1.3919         estimate D2E/DX2                !
 ! R12   R(8,12)                 1.7618         estimate D2E/DX2                !
 ! R13   R(9,10)                 1.4121         estimate D2E/DX2                !
 ! R14   R(9,13)                 1.3613         estimate D2E/DX2                !
 ! R15   R(10,11)                1.3804         estimate D2E/DX2                !
 ! R16   R(10,14)                1.0809         estimate D2E/DX2                !
 ! R17   R(11,12)                1.7518         estimate D2E/DX2                !
 ! R18   R(11,22)                1.438          estimate D2E/DX2                !
 ! R19   R(13,15)                1.4208         estimate D2E/DX2                !
 ! R20   R(15,16)                1.0886         estimate D2E/DX2                !
 ! R21   R(15,17)                1.0957         estimate D2E/DX2                !
 ! R22   R(15,18)                1.0957         estimate D2E/DX2                !
 ! R23   R(19,20)                1.3894         estimate D2E/DX2                !
 ! R24   R(19,23)                1.7595         estimate D2E/DX2                !
 ! R25   R(19,26)                1.4384         estimate D2E/DX2                !
 ! R26   R(20,21)                1.4136         estimate D2E/DX2                !
 ! R27   R(20,24)                1.3608         estimate D2E/DX2                !
 ! R28   R(21,22)                1.3796         estimate D2E/DX2                !
 ! R29   R(21,25)                1.0809         estimate D2E/DX2                !
 ! R30   R(22,23)                1.7518         estimate D2E/DX2                !
 ! R31   R(24,33)                1.4214         estimate D2E/DX2                !
 ! R32   R(26,27)                1.3883         estimate D2E/DX2                !
 ! R33   R(26,30)                1.7595         estimate D2E/DX2                !
 ! R34   R(27,28)                1.4227         estimate D2E/DX2                !
 ! R35   R(27,31)                1.3638         estimate D2E/DX2                !
 ! R36   R(28,29)                1.3657         estimate D2E/DX2                !
 ! R37   R(28,32)                1.08           estimate D2E/DX2                !
 ! R38   R(29,30)                1.7266         estimate D2E/DX2                !
 ! R39   R(29,41)                1.079          estimate D2E/DX2                !
 ! R40   R(31,37)                1.4205         estimate D2E/DX2                !
 ! R41   R(33,34)                1.0959         estimate D2E/DX2                !
 ! R42   R(33,35)                1.0959         estimate D2E/DX2                !
 ! R43   R(33,36)                1.089          estimate D2E/DX2                !
 ! R44   R(37,38)                1.0881         estimate D2E/DX2                !
 ! R45   R(37,39)                1.0959         estimate D2E/DX2                !
 ! R46   R(37,40)                1.0959         estimate D2E/DX2                !
 ! R47   R(42,43)                1.3883         estimate D2E/DX2                !
 ! R48   R(42,46)                1.7595         estimate D2E/DX2                !
 ! R49   R(42,49)                1.4384         estimate D2E/DX2                !
 ! R50   R(43,44)                1.4227         estimate D2E/DX2                !
 ! R51   R(43,47)                1.3638         estimate D2E/DX2                !
 ! R52   R(44,45)                1.3657         estimate D2E/DX2                !
 ! R53   R(44,48)                1.08           estimate D2E/DX2                !
 ! R54   R(45,46)                1.7266         estimate D2E/DX2                !
 ! R55   R(45,64)                1.079          estimate D2E/DX2                !
 ! R56   R(47,56)                1.4205         estimate D2E/DX2                !
 ! R57   R(49,50)                1.3894         estimate D2E/DX2                !
 ! R58   R(49,53)                1.7595         estimate D2E/DX2                !
 ! R59   R(50,51)                1.4136         estimate D2E/DX2                !
 ! R60   R(50,54)                1.3608         estimate D2E/DX2                !
 ! R61   R(51,52)                1.3796         estimate D2E/DX2                !
 ! R62   R(51,55)                1.0809         estimate D2E/DX2                !
 ! R63   R(52,53)                1.7518         estimate D2E/DX2                !
 ! R64   R(52,68)                1.438          estimate D2E/DX2                !
 ! R65   R(54,60)                1.4224         estimate D2E/DX2                !
 ! R66   R(56,57)                1.0959         estimate D2E/DX2                !
 ! R67   R(56,58)                1.0959         estimate D2E/DX2                !
 ! R68   R(56,59)                1.0881         estimate D2E/DX2                !
 ! R69   R(60,61)                1.0886         estimate D2E/DX2                !
 ! R70   R(60,62)                1.0957         estimate D2E/DX2                !
 ! R71   R(60,63)                1.0957         estimate D2E/DX2                !
 ! R72   R(65,66)                1.392          estimate D2E/DX2                !
 ! R73   R(65,69)                1.7626         estimate D2E/DX2                !
 ! R74   R(65,72)                1.4316         estimate D2E/DX2                !
 ! R75   R(66,67)                1.4121         estimate D2E/DX2                !
 ! R76   R(66,70)                1.3613         estimate D2E/DX2                !
 ! R77   R(67,68)                1.3804         estimate D2E/DX2                !
 ! R78   R(67,71)                1.0809         estimate D2E/DX2                !
 ! R79   R(68,69)                1.7518         estimate D2E/DX2                !
 ! R80   R(70,79)                1.4208         estimate D2E/DX2                !
 ! R81   R(72,73)                1.3933         estimate D2E/DX2                !
 ! R82   R(72,76)                1.7619         estimate D2E/DX2                !
 ! R83   R(73,74)                1.4117         estimate D2E/DX2                !
 ! R84   R(73,77)                1.36           estimate D2E/DX2                !
 ! R85   R(74,75)                1.3815         estimate D2E/DX2                !
 ! R86   R(74,78)                1.0802         estimate D2E/DX2                !
 ! R87   R(75,76)                1.7512         estimate D2E/DX2                !
 ! R88   R(77,126)               1.4315         estimate D2E/DX2                !
 ! R89   R(79,80)                1.0957         estimate D2E/DX2                !
 ! R90   R(79,81)                1.0957         estimate D2E/DX2                !
 ! R91   R(79,82)                1.0886         estimate D2E/DX2                !
 ! R92   R(83,84)                1.0969         estimate D2E/DX2                !
 ! R93   R(83,85)                1.0969         estimate D2E/DX2                !
 ! R94   R(83,86)                1.5201         estimate D2E/DX2                !
 ! R95   R(86,87)                1.095          estimate D2E/DX2                !
 ! R96   R(86,88)                1.0945         estimate D2E/DX2                !
 ! R97   R(86,89)                1.533          estimate D2E/DX2                !
 ! R98   R(89,90)                1.097          estimate D2E/DX2                !
 ! R99   R(89,91)                1.0978         estimate D2E/DX2                !
 ! R100  R(89,92)                1.5335         estimate D2E/DX2                !
 ! R101  R(92,93)                1.0968         estimate D2E/DX2                !
 ! R102  R(92,94)                1.097          estimate D2E/DX2                !
 ! R103  R(92,95)                1.5329         estimate D2E/DX2                !
 ! R104  R(95,96)                1.0978         estimate D2E/DX2                !
 ! R105  R(95,97)                1.0978         estimate D2E/DX2                !
 ! R106  R(95,98)                1.5326         estimate D2E/DX2                !
 ! R107  R(98,99)                1.0973         estimate D2E/DX2                !
 ! R108  R(98,100)               1.0978         estimate D2E/DX2                !
 ! R109  R(98,101)               1.5337         estimate D2E/DX2                !
 ! R110  R(101,102)              1.0978         estimate D2E/DX2                !
 ! R111  R(101,103)              1.097          estimate D2E/DX2                !
 ! R112  R(101,104)              1.5322         estimate D2E/DX2                !
 ! R113  R(104,105)              1.0975         estimate D2E/DX2                !
 ! R114  R(104,106)              1.0983         estimate D2E/DX2                !
 ! R115  R(104,107)              1.5335         estimate D2E/DX2                !
 ! R116  R(107,108)              1.0965         estimate D2E/DX2                !
 ! R117  R(107,109)              1.0973         estimate D2E/DX2                !
 ! R118  R(107,110)              1.5314         estimate D2E/DX2                !
 ! R119  R(110,111)              1.0945         estimate D2E/DX2                !
 ! R120  R(110,112)              1.0943         estimate D2E/DX2                !
 ! R121  R(110,113)              1.5396         estimate D2E/DX2                !
 ! R122  R(113,114)              1.0705         estimate D2E/DX2                !
 ! R123  R(113,115)              1.0693         estimate D2E/DX2                !
 ! R124  R(113,116)              1.5402         estimate D2E/DX2                !
 ! R125  R(116,117)              1.0709         estimate D2E/DX2                !
 ! R126  R(116,118)              1.0697         estimate D2E/DX2                !
 ! R127  R(116,119)              1.5394         estimate D2E/DX2                !
 ! R128  R(119,120)              1.0701         estimate D2E/DX2                !
 ! R129  R(119,121)              1.0702         estimate D2E/DX2                !
 ! R130  R(119,122)              1.5398         estimate D2E/DX2                !
 ! R131  R(122,123)              1.0701         estimate D2E/DX2                !
 ! R132  R(122,124)              1.0703         estimate D2E/DX2                !
 ! R133  R(122,125)              1.0697         estimate D2E/DX2                !
 ! R134  R(126,127)              1.0969         estimate D2E/DX2                !
 ! R135  R(126,128)              1.0969         estimate D2E/DX2                !
 ! R136  R(126,129)              1.5201         estimate D2E/DX2                !
 ! R137  R(129,130)              1.0945         estimate D2E/DX2                !
 ! R138  R(129,131)              1.0945         estimate D2E/DX2                !
 ! R139  R(129,132)              1.533          estimate D2E/DX2                !
 ! R140  R(132,133)              1.097          estimate D2E/DX2                !
 ! R141  R(132,134)              1.0978         estimate D2E/DX2                !
 ! R142  R(132,135)              1.5335         estimate D2E/DX2                !
 ! R143  R(135,136)              1.097          estimate D2E/DX2                !
 ! R144  R(135,137)              1.097          estimate D2E/DX2                !
 ! R145  R(135,138)              1.5329         estimate D2E/DX2                !
 ! R146  R(138,139)              1.0978         estimate D2E/DX2                !
 ! R147  R(138,140)              1.0978         estimate D2E/DX2                !
 ! R148  R(138,141)              1.5326         estimate D2E/DX2                !
 ! R149  R(141,142)              1.0978         estimate D2E/DX2                !
 ! R150  R(141,143)              1.0978         estimate D2E/DX2                !
 ! R151  R(141,144)              1.5327         estimate D2E/DX2                !
 ! R152  R(144,145)              1.0976         estimate D2E/DX2                !
 ! R153  R(144,146)              1.0976         estimate D2E/DX2                !
 ! R154  R(144,147)              1.5326         estimate D2E/DX2                !
 ! R155  R(147,148)              1.0975         estimate D2E/DX2                !
 ! R156  R(147,149)              1.0983         estimate D2E/DX2                !
 ! R157  R(147,150)              1.5335         estimate D2E/DX2                !
 ! R158  R(150,151)              1.0965         estimate D2E/DX2                !
 ! R159  R(150,152)              1.0973         estimate D2E/DX2                !
 ! R160  R(150,153)              1.5314         estimate D2E/DX2                !
 ! R161  R(153,154)              1.0943         estimate D2E/DX2                !
 ! R162  R(153,155)              1.0951         estimate D2E/DX2                !
 ! R163  R(153,156)              1.5394         estimate D2E/DX2                !
 ! R164  R(156,157)              1.0697         estimate D2E/DX2                !
 ! R165  R(156,158)              1.0706         estimate D2E/DX2                !
 ! R166  R(156,159)              1.5398         estimate D2E/DX2                !
 ! R167  R(159,160)              1.0697         estimate D2E/DX2                !
 ! R168  R(159,161)              1.0698         estimate D2E/DX2                !
 ! R169  R(159,162)              1.5406         estimate D2E/DX2                !
 ! R170  R(162,163)              1.0698         estimate D2E/DX2                !
 ! R171  R(162,164)              1.0697         estimate D2E/DX2                !
 ! R172  R(162,165)              1.5398         estimate D2E/DX2                !
 ! R173  R(165,166)              1.0703         estimate D2E/DX2                !
 ! R174  R(165,167)              1.0702         estimate D2E/DX2                !
 ! R175  R(165,168)              1.0701         estimate D2E/DX2                !
 ! A1    A(2,1,5)              109.2091         estimate D2E/DX2                !
 ! A2    A(2,1,8)              128.1133         estimate D2E/DX2                !
 ! A3    A(5,1,8)              122.6776         estimate D2E/DX2                !
 ! A4    A(1,2,3)              114.4478         estimate D2E/DX2                !
 ! A5    A(1,2,6)              119.2418         estimate D2E/DX2                !
 ! A6    A(3,2,6)              126.3104         estimate D2E/DX2                !
 ! A7    A(2,3,4)              113.307          estimate D2E/DX2                !
 ! A8    A(2,3,7)              123.9738         estimate D2E/DX2                !
 ! A9    A(4,3,7)              122.7192         estimate D2E/DX2                !
 ! A10   A(3,4,5)              110.6669         estimate D2E/DX2                !
 ! A11   A(3,4,75)             128.3924         estimate D2E/DX2                !
 ! A12   A(5,4,75)             120.9407         estimate D2E/DX2                !
 ! A13   A(1,5,4)               92.3692         estimate D2E/DX2                !
 ! A14   A(2,6,83)             118.3419         estimate D2E/DX2                !
 ! A15   A(1,8,9)              127.9978         estimate D2E/DX2                !
 ! A16   A(1,8,12)             122.8229         estimate D2E/DX2                !
 ! A17   A(9,8,12)             109.1792         estimate D2E/DX2                !
 ! A18   A(8,9,10)             114.5387         estimate D2E/DX2                !
 ! A19   A(8,9,13)             119.1208         estimate D2E/DX2                !
 ! A20   A(10,9,13)            126.3405         estimate D2E/DX2                !
 ! A21   A(9,10,11)            113.2433         estimate D2E/DX2                !
 ! A22   A(9,10,14)            123.9454         estimate D2E/DX2                !
 ! A23   A(11,10,14)           122.8114         estimate D2E/DX2                !
 ! A24   A(10,11,12)           110.6868         estimate D2E/DX2                !
 ! A25   A(10,11,22)           128.416          estimate D2E/DX2                !
 ! A26   A(12,11,22)           120.8972         estimate D2E/DX2                !
 ! A27   A(8,12,11)             92.352          estimate D2E/DX2                !
 ! A28   A(9,13,15)            117.9961         estimate D2E/DX2                !
 ! A29   A(13,15,16)           105.9948         estimate D2E/DX2                !
 ! A30   A(13,15,17)           111.2903         estimate D2E/DX2                !
 ! A31   A(13,15,18)           111.2903         estimate D2E/DX2                !
 ! A32   A(16,15,17)           109.3185         estimate D2E/DX2                !
 ! A33   A(16,15,18)           109.3185         estimate D2E/DX2                !
 ! A34   A(17,15,18)           109.5433         estimate D2E/DX2                !
 ! A35   A(20,19,23)           109.2906         estimate D2E/DX2                !
 ! A36   A(20,19,26)           127.9851         estimate D2E/DX2                !
 ! A37   A(23,19,26)           122.7243         estimate D2E/DX2                !
 ! A38   A(19,20,21)           114.4964         estimate D2E/DX2                !
 ! A39   A(19,20,24)           119.138          estimate D2E/DX2                !
 ! A40   A(21,20,24)           126.3656         estimate D2E/DX2                !
 ! A41   A(20,21,22)           113.2022         estimate D2E/DX2                !
 ! A42   A(20,21,25)           124.0125         estimate D2E/DX2                !
 ! A43   A(22,21,25)           122.7853         estimate D2E/DX2                !
 ! A44   A(11,22,21)           128.442          estimate D2E/DX2                !
 ! A45   A(11,22,23)           120.8972         estimate D2E/DX2                !
 ! A46   A(21,22,23)           110.6608         estimate D2E/DX2                !
 ! A47   A(19,23,22)            92.35           estimate D2E/DX2                !
 ! A48   A(20,24,33)           117.9903         estimate D2E/DX2                !
 ! A49   A(19,26,27)           127.9506         estimate D2E/DX2                !
 ! A50   A(19,26,30)           122.7971         estimate D2E/DX2                !
 ! A51   A(27,26,30)           109.2523         estimate D2E/DX2                !
 ! A52   A(26,27,28)           114.2756         estimate D2E/DX2                !
 ! A53   A(26,27,31)           119.397          estimate D2E/DX2                !
 ! A54   A(28,27,31)           126.3274         estimate D2E/DX2                !
 ! A55   A(27,28,29)           112.041          estimate D2E/DX2                !
 ! A56   A(27,28,32)           124.5139         estimate D2E/DX2                !
 ! A57   A(29,28,32)           123.4451         estimate D2E/DX2                !
 ! A58   A(28,29,30)           112.5165         estimate D2E/DX2                !
 ! A59   A(28,29,41)           127.7452         estimate D2E/DX2                !
 ! A60   A(30,29,41)           119.7383         estimate D2E/DX2                !
 ! A61   A(26,30,29)            91.9146         estimate D2E/DX2                !
 ! A62   A(27,31,37)           117.9626         estimate D2E/DX2                !
 ! A63   A(24,33,34)           111.2983         estimate D2E/DX2                !
 ! A64   A(24,33,35)           111.2983         estimate D2E/DX2                !
 ! A65   A(24,33,36)           106.0109         estimate D2E/DX2                !
 ! A66   A(34,33,35)           109.5019         estimate D2E/DX2                !
 ! A67   A(34,33,36)           109.3243         estimate D2E/DX2                !
 ! A68   A(35,33,36)           109.3243         estimate D2E/DX2                !
 ! A69   A(31,37,38)           106.0171         estimate D2E/DX2                !
 ! A70   A(31,37,39)           111.3202         estimate D2E/DX2                !
 ! A71   A(31,37,40)           111.3202         estimate D2E/DX2                !
 ! A72   A(38,37,39)           109.2942         estimate D2E/DX2                !
 ! A73   A(38,37,40)           109.2942         estimate D2E/DX2                !
 ! A74   A(39,37,40)           109.5098         estimate D2E/DX2                !
 ! A75   A(43,42,46)           109.2523         estimate D2E/DX2                !
 ! A76   A(43,42,49)           127.9506         estimate D2E/DX2                !
 ! A77   A(46,42,49)           122.7971         estimate D2E/DX2                !
 ! A78   A(42,43,44)           114.2756         estimate D2E/DX2                !
 ! A79   A(42,43,47)           119.397          estimate D2E/DX2                !
 ! A80   A(44,43,47)           126.3274         estimate D2E/DX2                !
 ! A81   A(43,44,45)           112.041          estimate D2E/DX2                !
 ! A82   A(43,44,48)           124.5139         estimate D2E/DX2                !
 ! A83   A(45,44,48)           123.4451         estimate D2E/DX2                !
 ! A84   A(44,45,46)           112.5165         estimate D2E/DX2                !
 ! A85   A(44,45,64)           127.7452         estimate D2E/DX2                !
 ! A86   A(46,45,64)           119.7383         estimate D2E/DX2                !
 ! A87   A(42,46,45)            91.9146         estimate D2E/DX2                !
 ! A88   A(43,47,56)           117.9626         estimate D2E/DX2                !
 ! A89   A(42,49,50)           127.9851         estimate D2E/DX2                !
 ! A90   A(42,49,53)           122.7243         estimate D2E/DX2                !
 ! A91   A(50,49,53)           109.2906         estimate D2E/DX2                !
 ! A92   A(49,50,51)           114.4964         estimate D2E/DX2                !
 ! A93   A(49,50,54)           119.138          estimate D2E/DX2                !
 ! A94   A(51,50,54)           126.3656         estimate D2E/DX2                !
 ! A95   A(50,51,52)           113.2022         estimate D2E/DX2                !
 ! A96   A(50,51,55)           124.0125         estimate D2E/DX2                !
 ! A97   A(52,51,55)           122.7853         estimate D2E/DX2                !
 ! A98   A(51,52,53)           110.6608         estimate D2E/DX2                !
 ! A99   A(51,52,68)           128.442          estimate D2E/DX2                !
 ! A100  A(53,52,68)           120.8972         estimate D2E/DX2                !
 ! A101  A(49,53,52)            92.35           estimate D2E/DX2                !
 ! A102  A(50,54,60)           117.9972         estimate D2E/DX2                !
 ! A103  A(47,56,57)           111.3202         estimate D2E/DX2                !
 ! A104  A(47,56,58)           111.3202         estimate D2E/DX2                !
 ! A105  A(47,56,59)           106.0171         estimate D2E/DX2                !
 ! A106  A(57,56,58)           109.5098         estimate D2E/DX2                !
 ! A107  A(57,56,59)           109.2942         estimate D2E/DX2                !
 ! A108  A(58,56,59)           109.2942         estimate D2E/DX2                !
 ! A109  A(54,60,61)           105.9705         estimate D2E/DX2                !
 ! A110  A(54,60,62)           111.2454         estimate D2E/DX2                !
 ! A111  A(54,60,63)           111.2454         estimate D2E/DX2                !
 ! A112  A(61,60,62)           109.3774         estimate D2E/DX2                !
 ! A113  A(61,60,63)           109.3774         estimate D2E/DX2                !
 ! A114  A(62,60,63)           109.5433         estimate D2E/DX2                !
 ! A115  A(66,65,69)           109.1233         estimate D2E/DX2                !
 ! A116  A(66,65,72)           128.0579         estimate D2E/DX2                !
 ! A117  A(69,65,72)           122.8188         estimate D2E/DX2                !
 ! A118  A(65,66,67)           114.5793         estimate D2E/DX2                !
 ! A119  A(65,66,70)           119.0801         estimate D2E/DX2                !
 ! A120  A(67,66,70)           126.3405         estimate D2E/DX2                !
 ! A121  A(66,67,68)           113.2433         estimate D2E/DX2                !
 ! A122  A(66,67,71)           123.9454         estimate D2E/DX2                !
 ! A123  A(68,67,71)           122.8114         estimate D2E/DX2                !
 ! A124  A(52,68,67)           128.416          estimate D2E/DX2                !
 ! A125  A(52,68,69)           120.8972         estimate D2E/DX2                !
 ! A126  A(67,68,69)           110.6868         estimate D2E/DX2                !
 ! A127  A(65,69,68)            92.3673         estimate D2E/DX2                !
 ! A128  A(66,70,79)           117.9961         estimate D2E/DX2                !
 ! A129  A(65,72,73)           128.1328         estimate D2E/DX2                !
 ! A130  A(65,72,76)           122.6581         estimate D2E/DX2                !
 ! A131  A(73,72,76)           109.2091         estimate D2E/DX2                !
 ! A132  A(72,73,74)           114.4478         estimate D2E/DX2                !
 ! A133  A(72,73,77)           119.2087         estimate D2E/DX2                !
 ! A134  A(74,73,77)           126.3435         estimate D2E/DX2                !
 ! A135  A(73,74,75)           113.307          estimate D2E/DX2                !
 ! A136  A(73,74,78)           123.9738         estimate D2E/DX2                !
 ! A137  A(75,74,78)           122.7192         estimate D2E/DX2                !
 ! A138  A(4,75,74)            128.3924         estimate D2E/DX2                !
 ! A139  A(4,75,76)            120.9407         estimate D2E/DX2                !
 ! A140  A(74,75,76)           110.6669         estimate D2E/DX2                !
 ! A141  A(72,76,75)            92.3692         estimate D2E/DX2                !
 ! A142  A(73,77,126)          118.3158         estimate D2E/DX2                !
 ! A143  A(70,79,80)           111.2903         estimate D2E/DX2                !
 ! A144  A(70,79,81)           111.2903         estimate D2E/DX2                !
 ! A145  A(70,79,82)           105.9948         estimate D2E/DX2                !
 ! A146  A(80,79,81)           109.5433         estimate D2E/DX2                !
 ! A147  A(80,79,82)           109.3185         estimate D2E/DX2                !
 ! A148  A(81,79,82)           109.3185         estimate D2E/DX2                !
 ! A149  A(6,83,84)            109.526          estimate D2E/DX2                !
 ! A150  A(6,83,85)            109.526          estimate D2E/DX2                !
 ! A151  A(6,83,86)            107.9876         estimate D2E/DX2                !
 ! A152  A(84,83,85)           108.2882         estimate D2E/DX2                !
 ! A153  A(84,83,86)           110.7507         estimate D2E/DX2                !
 ! A154  A(85,83,86)           110.7507         estimate D2E/DX2                !
 ! A155  A(83,86,87)           108.5955         estimate D2E/DX2                !
 ! A156  A(83,86,88)           108.5559         estimate D2E/DX2                !
 ! A157  A(83,86,89)           112.4654         estimate D2E/DX2                !
 ! A158  A(87,86,88)           106.8163         estimate D2E/DX2                !
 ! A159  A(87,86,89)           110.1116         estimate D2E/DX2                !
 ! A160  A(88,86,89)           110.1162         estimate D2E/DX2                !
 ! A161  A(86,89,90)           109.5342         estimate D2E/DX2                !
 ! A162  A(86,89,91)           109.5194         estimate D2E/DX2                !
 ! A163  A(86,89,92)           113.0887         estimate D2E/DX2                !
 ! A164  A(90,89,91)           106.1815         estimate D2E/DX2                !
 ! A165  A(90,89,92)           109.1483         estimate D2E/DX2                !
 ! A166  A(91,89,92)           109.1338         estimate D2E/DX2                !
 ! A167  A(89,92,93)           109.1799         estimate D2E/DX2                !
 ! A168  A(89,92,94)           109.1483         estimate D2E/DX2                !
 ! A169  A(89,92,95)           113.5387         estimate D2E/DX2                !
 ! A170  A(93,92,94)           106.17           estimate D2E/DX2                !
 ! A171  A(93,92,95)           109.2455         estimate D2E/DX2                !
 ! A172  A(94,92,95)           109.2954         estimate D2E/DX2                !
 ! A173  A(92,95,96)           109.2358         estimate D2E/DX2                !
 ! A174  A(92,95,97)           109.2358         estimate D2E/DX2                !
 ! A175  A(92,95,98)           113.5566         estimate D2E/DX2                !
 ! A176  A(96,95,97)           106.0427         estimate D2E/DX2                !
 ! A177  A(96,95,98)           109.2482         estimate D2E/DX2                !
 ! A178  A(97,95,98)           109.2482         estimate D2E/DX2                !
 ! A179  A(95,98,99)           109.2093         estimate D2E/DX2                !
 ! A180  A(95,98,100)          109.2482         estimate D2E/DX2                !
 ! A181  A(95,98,101)          113.6343         estimate D2E/DX2                !
 ! A182  A(99,98,100)          106.0795         estimate D2E/DX2                !
 ! A183  A(99,98,101)          109.1993         estimate D2E/DX2                !
 ! A184  A(100,98,101)         109.1944         estimate D2E/DX2                !
 ! A185  A(98,101,102)         109.1944         estimate D2E/DX2                !
 ! A186  A(98,101,103)         109.2089         estimate D2E/DX2                !
 ! A187  A(98,101,104)         113.6015         estimate D2E/DX2                !
 ! A188  A(102,101,103)        106.0113         estimate D2E/DX2                !
 ! A189  A(102,101,104)        109.2657         estimate D2E/DX2                !
 ! A190  A(103,101,104)        109.2803         estimate D2E/DX2                !
 ! A191  A(101,104,105)        109.3192         estimate D2E/DX2                !
 ! A192  A(101,104,106)        109.3046         estimate D2E/DX2                !
 ! A193  A(101,104,107)        113.6759         estimate D2E/DX2                !
 ! A194  A(105,104,106)        105.9378         estimate D2E/DX2                !
 ! A195  A(105,104,107)        109.1958         estimate D2E/DX2                !
 ! A196  A(106,104,107)        109.1182         estimate D2E/DX2                !
 ! A197  A(104,107,108)        109.2057         estimate D2E/DX2                !
 ! A198  A(104,107,109)        109.128          estimate D2E/DX2                !
 ! A199  A(104,107,110)        113.3086         estimate D2E/DX2                !
 ! A200  A(108,107,109)        106.0848         estimate D2E/DX2                !
 ! A201  A(108,107,110)        109.4368         estimate D2E/DX2                !
 ! A202  A(109,107,110)        109.4221         estimate D2E/DX2                !
 ! A203  A(107,110,111)        111.1543         estimate D2E/DX2                !
 ! A204  A(107,110,112)        111.2092         estimate D2E/DX2                !
 ! A205  A(107,110,113)        111.4573         estimate D2E/DX2                !
 ! A206  A(111,110,112)        107.4864         estimate D2E/DX2                !
 ! A207  A(111,110,113)        107.6664         estimate D2E/DX2                !
 ! A208  A(112,110,113)        107.6772         estimate D2E/DX2                !
 ! A209  A(110,113,114)        109.4937         estimate D2E/DX2                !
 ! A210  A(110,113,115)        109.48           estimate D2E/DX2                !
 ! A211  A(110,113,116)        109.4848         estimate D2E/DX2                !
 ! A212  A(114,113,115)        109.4623         estimate D2E/DX2                !
 ! A213  A(114,113,116)        109.4495         estimate D2E/DX2                !
 ! A214  A(115,113,116)        109.457          estimate D2E/DX2                !
 ! A215  A(113,116,117)        109.4525         estimate D2E/DX2                !
 ! A216  A(113,116,118)        109.4648         estimate D2E/DX2                !
 ! A217  A(113,116,119)        109.5217         estimate D2E/DX2                !
 ! A218  A(117,116,118)        109.4032         estimate D2E/DX2                !
 ! A219  A(117,116,119)        109.462          estimate D2E/DX2                !
 ! A220  A(118,116,119)        109.523          estimate D2E/DX2                !
 ! A221  A(116,119,120)        109.4775         estimate D2E/DX2                !
 ! A222  A(116,119,121)        109.4564         estimate D2E/DX2                !
 ! A223  A(116,119,122)        109.4883         estimate D2E/DX2                !
 ! A224  A(120,119,121)        109.4239         estimate D2E/DX2                !
 ! A225  A(120,119,122)        109.4847         estimate D2E/DX2                !
 ! A226  A(121,119,122)        109.4965         estimate D2E/DX2                !
 ! A227  A(119,122,123)        109.4581         estimate D2E/DX2                !
 ! A228  A(119,122,124)        109.4588         estimate D2E/DX2                !
 ! A229  A(119,122,125)        109.4551         estimate D2E/DX2                !
 ! A230  A(123,122,124)        109.4145         estimate D2E/DX2                !
 ! A231  A(123,122,125)        109.5526         estimate D2E/DX2                !
 ! A232  A(124,122,125)        109.4882         estimate D2E/DX2                !
 ! A233  A(77,126,127)         109.5225         estimate D2E/DX2                !
 ! A234  A(77,126,128)         109.5225         estimate D2E/DX2                !
 ! A235  A(77,126,129)         107.9945         estimate D2E/DX2                !
 ! A236  A(127,126,128)        108.2882         estimate D2E/DX2                !
 ! A237  A(127,126,129)        110.7507         estimate D2E/DX2                !
 ! A238  A(128,126,129)        110.7507         estimate D2E/DX2                !
 ! A239  A(126,129,130)        108.5559         estimate D2E/DX2                !
 ! A240  A(126,129,131)        108.5559         estimate D2E/DX2                !
 ! A241  A(126,129,132)        112.4654         estimate D2E/DX2                !
 ! A242  A(130,129,131)        106.8528         estimate D2E/DX2                !
 ! A243  A(130,129,132)        110.1162         estimate D2E/DX2                !
 ! A244  A(131,129,132)        110.1162         estimate D2E/DX2                !
 ! A245  A(129,132,133)        109.5342         estimate D2E/DX2                !
 ! A246  A(129,132,134)        109.5194         estimate D2E/DX2                !
 ! A247  A(129,132,135)        113.0887         estimate D2E/DX2                !
 ! A248  A(133,132,134)        106.1815         estimate D2E/DX2                !
 ! A249  A(133,132,135)        109.1483         estimate D2E/DX2                !
 ! A250  A(134,132,135)        109.1338         estimate D2E/DX2                !
 ! A251  A(132,135,136)        109.1483         estimate D2E/DX2                !
 ! A252  A(132,135,137)        109.1483         estimate D2E/DX2                !
 ! A253  A(132,135,138)        113.5387         estimate D2E/DX2                !
 ! A254  A(136,135,137)        106.1502         estimate D2E/DX2                !
 ! A255  A(136,135,138)        109.2954         estimate D2E/DX2                !
 ! A256  A(137,135,138)        109.2954         estimate D2E/DX2                !
 ! A257  A(135,138,139)        109.2358         estimate D2E/DX2                !
 ! A258  A(135,138,140)        109.2358         estimate D2E/DX2                !
 ! A259  A(135,138,141)        113.5566         estimate D2E/DX2                !
 ! A260  A(139,138,140)        106.0427         estimate D2E/DX2                !
 ! A261  A(139,138,141)        109.2482         estimate D2E/DX2                !
 ! A262  A(140,138,141)        109.2482         estimate D2E/DX2                !
 ! A263  A(138,141,142)        109.2482         estimate D2E/DX2                !
 ! A264  A(138,141,143)        109.2482         estimate D2E/DX2                !
 ! A265  A(138,141,144)        113.6311         estimate D2E/DX2                !
 ! A266  A(142,141,143)        106.0427         estimate D2E/DX2                !
 ! A267  A(142,141,144)        109.1961         estimate D2E/DX2                !
 ! A268  A(143,141,144)        109.1961         estimate D2E/DX2                !
 ! A269  A(141,144,145)        109.2509         estimate D2E/DX2                !
 ! A270  A(141,144,146)        109.2509         estimate D2E/DX2                !
 ! A271  A(141,144,147)        113.6311         estimate D2E/DX2                !
 ! A272  A(145,144,146)        106.0767         estimate D2E/DX2                !
 ! A273  A(145,144,147)        109.1777         estimate D2E/DX2                !
 ! A274  A(146,144,147)        109.1777         estimate D2E/DX2                !
 ! A275  A(144,147,148)        109.3017         estimate D2E/DX2                !
 ! A276  A(144,147,149)        109.2871         estimate D2E/DX2                !
 ! A277  A(144,147,150)        113.7087         estimate D2E/DX2                !
 ! A278  A(148,147,149)        105.9378         estimate D2E/DX2                !
 ! A279  A(148,147,150)        109.1642         estimate D2E/DX2                !
 ! A280  A(149,147,150)        109.1497         estimate D2E/DX2                !
 ! A281  A(147,150,151)        109.1741         estimate D2E/DX2                !
 ! A282  A(147,150,152)        109.1596         estimate D2E/DX2                !
 ! A283  A(147,150,153)        113.3086         estimate D2E/DX2                !
 ! A284  A(151,150,152)        106.0848         estimate D2E/DX2                !
 ! A285  A(151,150,153)        109.4368         estimate D2E/DX2                !
 ! A286  A(152,150,153)        109.4221         estimate D2E/DX2                !
 ! A287  A(150,153,154)        111.2092         estimate D2E/DX2                !
 ! A288  A(150,153,155)        111.1928         estimate D2E/DX2                !
 ! A289  A(150,153,156)        111.4943         estimate D2E/DX2                !
 ! A290  A(154,153,155)        107.4479         estimate D2E/DX2                !
 ! A291  A(154,153,156)        107.6575         estimate D2E/DX2                !
 ! A292  A(155,153,156)        107.6441         estimate D2E/DX2                !
 ! A293  A(153,156,157)        109.4908         estimate D2E/DX2                !
 ! A294  A(153,156,158)        109.443          estimate D2E/DX2                !
 ! A295  A(153,156,159)        109.4884         estimate D2E/DX2                !
 ! A296  A(157,156,158)        109.4241         estimate D2E/DX2                !
 ! A297  A(157,156,159)        109.5138         estimate D2E/DX2                !
 ! A298  A(158,156,159)        109.4672         estimate D2E/DX2                !
 ! A299  A(156,159,160)        109.4873         estimate D2E/DX2                !
 ! A300  A(156,159,161)        109.4828         estimate D2E/DX2                !
 ! A301  A(156,159,162)        109.4557         estimate D2E/DX2                !
 ! A302  A(160,159,161)        109.4833         estimate D2E/DX2                !
 ! A303  A(160,159,162)        109.4755         estimate D2E/DX2                !
 ! A304  A(161,159,162)        109.4427         estimate D2E/DX2                !
 ! A305  A(159,162,163)        109.4427         estimate D2E/DX2                !
 ! A306  A(159,162,164)        109.4755         estimate D2E/DX2                !
 ! A307  A(159,162,165)        109.4557         estimate D2E/DX2                !
 ! A308  A(163,162,164)        109.4833         estimate D2E/DX2                !
 ! A309  A(163,162,165)        109.515          estimate D2E/DX2                !
 ! A310  A(164,162,165)        109.4551         estimate D2E/DX2                !
 ! A311  A(162,165,166)        109.4589         estimate D2E/DX2                !
 ! A312  A(162,165,167)        109.4965         estimate D2E/DX2                !
 ! A313  A(162,165,168)        109.4847         estimate D2E/DX2                !
 ! A314  A(166,165,167)        109.4388         estimate D2E/DX2                !
 ! A315  A(166,165,168)        109.5245         estimate D2E/DX2                !
 ! A316  A(167,165,168)        109.4239         estimate D2E/DX2                !
 ! D1    D(5,1,2,3)              0.0            estimate D2E/DX2                !
 ! D2    D(5,1,2,6)            180.0            estimate D2E/DX2                !
 ! D3    D(8,1,2,3)            180.0            estimate D2E/DX2                !
 ! D4    D(8,1,2,6)              0.0            estimate D2E/DX2                !
 ! D5    D(2,1,5,4)              0.0            estimate D2E/DX2                !
 ! D6    D(8,1,5,4)            180.0            estimate D2E/DX2                !
 ! D7    D(2,1,8,9)            180.0            estimate D2E/DX2                !
 ! D8    D(2,1,8,12)             0.0            estimate D2E/DX2                !
 ! D9    D(5,1,8,9)              0.0            estimate D2E/DX2                !
 ! D10   D(5,1,8,12)           180.0            estimate D2E/DX2                !
 ! D11   D(1,2,3,4)              0.0            estimate D2E/DX2                !
 ! D12   D(1,2,3,7)            180.0            estimate D2E/DX2                !
 ! D13   D(6,2,3,4)            180.0            estimate D2E/DX2                !
 ! D14   D(6,2,3,7)              0.0            estimate D2E/DX2                !
 ! D15   D(1,2,6,83)           180.0            estimate D2E/DX2                !
 ! D16   D(3,2,6,83)             0.0            estimate D2E/DX2                !
 ! D17   D(2,3,4,5)              0.0            estimate D2E/DX2                !
 ! D18   D(2,3,4,75)           180.0            estimate D2E/DX2                !
 ! D19   D(7,3,4,5)            180.0            estimate D2E/DX2                !
 ! D20   D(7,3,4,75)             0.0            estimate D2E/DX2                !
 ! D21   D(3,4,5,1)              0.0            estimate D2E/DX2                !
 ! D22   D(75,4,5,1)           180.0            estimate D2E/DX2                !
 ! D23   D(3,4,75,74)          180.0            estimate D2E/DX2                !
 ! D24   D(3,4,75,76)            0.0            estimate D2E/DX2                !
 ! D25   D(5,4,75,74)            0.0            estimate D2E/DX2                !
 ! D26   D(5,4,75,76)          180.0            estimate D2E/DX2                !
 ! D27   D(2,6,83,84)          -59.3108         estimate D2E/DX2                !
 ! D28   D(2,6,83,85)           59.3108         estimate D2E/DX2                !
 ! D29   D(2,6,83,86)          180.0            estimate D2E/DX2                !
 ! D30   D(1,8,9,10)           180.0            estimate D2E/DX2                !
 ! D31   D(1,8,9,13)             0.0            estimate D2E/DX2                !
 ! D32   D(12,8,9,10)            0.0            estimate D2E/DX2                !
 ! D33   D(12,8,9,13)          180.0            estimate D2E/DX2                !
 ! D34   D(1,8,12,11)          180.0            estimate D2E/DX2                !
 ! D35   D(9,8,12,11)            0.0            estimate D2E/DX2                !
 ! D36   D(8,9,10,11)            0.0            estimate D2E/DX2                !
 ! D37   D(8,9,10,14)          180.0            estimate D2E/DX2                !
 ! D38   D(13,9,10,11)         180.0            estimate D2E/DX2                !
 ! D39   D(13,9,10,14)           0.0            estimate D2E/DX2                !
 ! D40   D(8,9,13,15)          180.0            estimate D2E/DX2                !
 ! D41   D(10,9,13,15)           0.0            estimate D2E/DX2                !
 ! D42   D(9,10,11,12)           0.0            estimate D2E/DX2                !
 ! D43   D(9,10,11,22)         180.0            estimate D2E/DX2                !
 ! D44   D(14,10,11,12)        180.0            estimate D2E/DX2                !
 ! D45   D(14,10,11,22)          0.0            estimate D2E/DX2                !
 ! D46   D(10,11,12,8)           0.0            estimate D2E/DX2                !
 ! D47   D(22,11,12,8)         180.0            estimate D2E/DX2                !
 ! D48   D(10,11,22,21)        180.0            estimate D2E/DX2                !
 ! D49   D(10,11,22,23)          0.0            estimate D2E/DX2                !
 ! D50   D(12,11,22,21)          0.0            estimate D2E/DX2                !
 ! D51   D(12,11,22,23)        180.0            estimate D2E/DX2                !
 ! D52   D(9,13,15,16)         180.0            estimate D2E/DX2                !
 ! D53   D(9,13,15,17)         -61.2458         estimate D2E/DX2                !
 ! D54   D(9,13,15,18)          61.2458         estimate D2E/DX2                !
 ! D55   D(23,19,20,21)          0.0            estimate D2E/DX2                !
 ! D56   D(23,19,20,24)        180.0            estimate D2E/DX2                !
 ! D57   D(26,19,20,21)        180.0            estimate D2E/DX2                !
 ! D58   D(26,19,20,24)          0.0            estimate D2E/DX2                !
 ! D59   D(20,19,23,22)          0.0            estimate D2E/DX2                !
 ! D60   D(26,19,23,22)        180.0            estimate D2E/DX2                !
 ! D61   D(20,19,26,27)        180.0            estimate D2E/DX2                !
 ! D62   D(20,19,26,30)          0.0            estimate D2E/DX2                !
 ! D63   D(23,19,26,27)          0.0            estimate D2E/DX2                !
 ! D64   D(23,19,26,30)        180.0            estimate D2E/DX2                !
 ! D65   D(19,20,21,22)          0.0            estimate D2E/DX2                !
 ! D66   D(19,20,21,25)        180.0            estimate D2E/DX2                !
 ! D67   D(24,20,21,22)        180.0            estimate D2E/DX2                !
 ! D68   D(24,20,21,25)          0.0            estimate D2E/DX2                !
 ! D69   D(19,20,24,33)        180.0            estimate D2E/DX2                !
 ! D70   D(21,20,24,33)          0.0            estimate D2E/DX2                !
 ! D71   D(20,21,22,11)        180.0            estimate D2E/DX2                !
 ! D72   D(20,21,22,23)          0.0            estimate D2E/DX2                !
 ! D73   D(25,21,22,11)          0.0            estimate D2E/DX2                !
 ! D74   D(25,21,22,23)        180.0            estimate D2E/DX2                !
 ! D75   D(11,22,23,19)        180.0            estimate D2E/DX2                !
 ! D76   D(21,22,23,19)          0.0            estimate D2E/DX2                !
 ! D77   D(20,24,33,34)         61.2248         estimate D2E/DX2                !
 ! D78   D(20,24,33,35)        -61.2248         estimate D2E/DX2                !
 ! D79   D(20,24,33,36)        180.0            estimate D2E/DX2                !
 ! D80   D(19,26,27,28)        180.0            estimate D2E/DX2                !
 ! D81   D(19,26,27,31)          0.0            estimate D2E/DX2                !
 ! D82   D(30,26,27,28)          0.0            estimate D2E/DX2                !
 ! D83   D(30,26,27,31)        180.0            estimate D2E/DX2                !
 ! D84   D(19,26,30,29)        180.0            estimate D2E/DX2                !
 ! D85   D(27,26,30,29)          0.0            estimate D2E/DX2                !
 ! D86   D(26,27,28,29)          0.0            estimate D2E/DX2                !
 ! D87   D(26,27,28,32)        180.0            estimate D2E/DX2                !
 ! D88   D(31,27,28,29)        180.0            estimate D2E/DX2                !
 ! D89   D(31,27,28,32)          0.0            estimate D2E/DX2                !
 ! D90   D(26,27,31,37)        180.0            estimate D2E/DX2                !
 ! D91   D(28,27,31,37)          0.0            estimate D2E/DX2                !
[...]
       Atomic Center  151 is at -12.477109 -7.690205 -0.876850
       Atomic Center  152 is at -12.477081 -7.690267  0.876633
       Atomic Center  153 is at -14.402342 -7.257078 -0.000062
       Atomic Center  154 is at -14.797778 -6.727985 -0.876770
       Atomic Center  155 is at -14.797746 -6.728078  0.876718
       Atomic Center  156 is at -14.927779 -8.697182 -0.000129
       Atomic Center  157 is at -14.532287 -9.226152 -0.876927
       Atomic Center  158 is at -14.532242 -9.226252  0.876588
       Atomic Center  159 is at -16.457478 -8.793973 -0.000095
       Atomic Center  160 is at -16.854020 -8.265516  0.876707
       Atomic Center  161 is at -16.854066 -8.265406 -0.876810
       Atomic Center  162 is at -16.983563-10.233866 -0.000172
       Atomic Center  163 is at -16.587984-10.762009  0.875933
       Atomic Center  164 is at -16.588036-10.761896 -0.876369
       Atomic Center  165 is at -18.512464-10.320704 -0.000133
       Atomic Center  166 is at -18.854432-11.359334 -0.000192
       Atomic Center  167 is at -18.936305 -9.831798  0.882693
       Atomic Center  168 is at -18.936357 -9.831682 -0.882870
   88133 points will be used for fitting atomic charges
 Fitting point charges to electrostatic potential
 Charges from ESP fit, RMS=   0.00337 RRMS=   0.29159:
 ESP charges:
               1
     1  C   -0.006594
     2  C    0.235845
     3  C   -0.335346
     4  C    0.105617
     5  S   -0.184694
     6  O   -0.230511
     7  H    0.211833
     8  C    0.004762
     9  C    0.218920
    10  C   -0.346623
    11  C    0.136093
    12  S   -0.191604
    13  O   -0.182633
    14  H    0.227019
    15  C   -0.008541
    16  H    0.083459
    17  H    0.040378
    18  H    0.040378
    19  C    0.016194
    20  C    0.250701
    21  C   -0.309197
    22  C    0.059656
    23  S   -0.176707
    24  O   -0.256158
    25  H    0.209266
    26  C   -0.113302
    27  C    0.317367
    28  C   -0.301427
    29  C   -0.134129
    30  S   -0.032188
    31  O   -0.200421
    32  H    0.152531
    33  C    0.044211
    34  H    0.031532
    35  H    0.031535
    36  H    0.074620
    37  C   -0.041500
    38  H    0.088435
    39  H    0.054798
    40  H    0.054795
    41  H    0.160189
    42  C   -0.113298
    43  C    0.317363
    44  C   -0.301420
    45  C   -0.134140
    46  S   -0.032184
    47  O   -0.200418
    48  H    0.152529
    49  C    0.016188
    50  C    0.250703
    51  C   -0.309191
    52  C    0.059644
    53  S   -0.176703
    54  O   -0.256155
    55  H    0.209267
    56  C   -0.041507
    57  H    0.054799
    58  H    0.054798
    59  H    0.088436
    60  C    0.044187
    61  H    0.074625
    62  H    0.031542
    63  H    0.031540
    64  H    0.160192
    65  C    0.004798
    66  C    0.218908
    67  C   -0.346620
    68  C    0.136108
    69  S   -0.191629
    70  O   -0.182649
    71  H    0.227016
    72  C   -0.006626
    73  C    0.235847
    74  C   -0.335337
    75  C    0.105587
    76  S   -0.184666
    77  O   -0.230495
    78  H    0.211836
    79  C   -0.008531
    80  H    0.040379
    81  H    0.040378
    82  H    0.083455
    83  C    0.126582
    84  H    0.005260
    85  H    0.005261
    86  C    0.089559
    87  H   -0.000795
    88  H   -0.000792
    89  C   -0.050536
    90  H    0.005343
    91  H    0.005343
    92  C    0.048190
    93  H   -0.018613
    94  H   -0.018614
    95  C    0.056032
    96  H   -0.023164
    97  H   -0.023166
    98  C    0.052759
    99  H   -0.024546
   100  H   -0.024544
   101  C    0.040916
   102  H   -0.023201
   103  H   -0.023201
   104  C    0.049820
   105  H   -0.025328
   106  H   -0.025341
   107  C    0.050386
   108  H   -0.024732
   109  H   -0.024735
   110  C    0.079728
   111  H   -0.031089
   112  H   -0.031079
   113  C    0.012283
   114  H   -0.019810
   115  H   -0.019825
   116  C    0.021597
   117  H   -0.017151
   118  H   -0.017171
   119  C    0.207001
   120  H   -0.051815
   121  H   -0.051827
   122  C   -0.162677
   123  H    0.024769
   124  H    0.029582
   125  H    0.024784
   126  C    0.126566
   127  H    0.005263
   128  H    0.005266
   129  C    0.089561
   130  H   -0.000793
   131  H   -0.000791
   132  C   -0.050542
   133  H    0.005345
   134  H    0.005345
   135  C    0.048182
   136  H   -0.018612
   137  H   -0.018613
   138  C    0.056058
   139  H   -0.023170
   140  H   -0.023171
   141  C    0.052735
   142  H   -0.024541
   143  H   -0.024540
   144  C    0.040919
   145  H   -0.023199
   146  H   -0.023201
   147  C    0.049827
   148  H   -0.025327
   149  H   -0.025333
   150  C    0.050358
   151  H   -0.024730
   152  H   -0.024728
   153  C    0.079694
   154  H   -0.031084
   155  H   -0.031074
   156  C    0.012435
   157  H   -0.019841
   158  H   -0.019856
   159  C    0.021436
   160  H   -0.017131
   161  H   -0.017112
   162  C    0.207011
   163  H   -0.051798
   164  H   -0.051810
   165  C   -0.162799
   166  H    0.029623
   167  H    0.024814
   168  H    0.024797
 Sum of ESP charges =  -0.00000
 ESP charges with hydrogens summed into heavy atoms:
               1
     1  C   -0.006594
     2  C    0.235845
     3  C   -0.123512
     4  C    0.105617
     5  S   -0.184694
     6  O   -0.230511
     8  C    0.004762
     9  C    0.218920
    10  C   -0.119603
    11  C    0.136093
    12  S   -0.191604
    13  O   -0.182633
    15  C    0.155674
    19  C    0.016194
    20  C    0.250701
    21  C   -0.099931
    22  C    0.059656
    23  S   -0.176707
    24  O   -0.256158
    26  C   -0.113302
    27  C    0.317367
    28  C   -0.148896
    29  C    0.026059
    30  S   -0.032188
    31  O   -0.200421
    33  C    0.181897
    37  C    0.156528
    42  C   -0.113298
    43  C    0.317363
    44  C   -0.148891
    45  C    0.026053
    46  S   -0.032184
    47  O   -0.200418
    49  C    0.016188
    50  C    0.250703
    51  C   -0.099924
    52  C    0.059644
    53  S   -0.176703
    54  O   -0.256155
    56  C    0.156526
    60  C    0.181894
    65  C    0.004798
    66  C    0.218908
    67  C   -0.119604
    68  C    0.136108
    69  S   -0.191629
    70  O   -0.182649
    72  C   -0.006626
    73  C    0.235847
    74  C   -0.123501
    75  C    0.105587
    76  S   -0.184666
    77  O   -0.230495
    79  C    0.155681
    83  C    0.137103
    86  C    0.087971
    89  C   -0.039850
    92  C    0.010963
    95  C    0.009702
    98  C    0.003669
   101  C   -0.005486
   104  C   -0.000848
   107  C    0.000919
   110  C    0.017560
   113  C   -0.027352
   116  C   -0.012725
   119  C    0.103360
   122  C   -0.083542
   126  C    0.137094
   129  C    0.087977
   132  C   -0.039852
   135  C    0.010957
   138  C    0.009717
   141  C    0.003654
   144  C   -0.005481
   147  C   -0.000834
   150  C    0.000900
   153  C    0.017537
   156  C   -0.027262
   159  C   -0.012807
   162  C    0.103403
   165  C   -0.083565
 Charge=  -0.00000 Dipole=     0.0001    -0.0000    -0.0001 Tot=     0.0001
 -----------------------------------------------------------------

              Electrostatic Properties (Atomic Units)

 -----------------------------------------------------------------
    Center     Electric         -------- Electric Field --------
               Potential          X             Y             Z
 -----------------------------------------------------------------
    1 Atom    -14.746847
    2 Atom    -14.718376
    3 Atom    -14.779169
    4 Atom    -14.744613
    5 Atom    -59.229464
    6 Atom    -22.342195
    7 Atom     -1.095586
    8 Atom    -14.746286
    9 Atom    -14.718066
   10 Atom    -14.778061
   11 Atom    -14.743845
   12 Atom    -59.228763
   13 Atom    -22.338780
   14 Atom     -1.094023
   15 Atom    -14.717241
   16 Atom     -1.102697
   17 Atom     -1.104362
   18 Atom     -1.104362
   19 Atom    -14.747221
   20 Atom    -14.718787
   21 Atom    -14.778487
   22 Atom    -14.743977
   23 Atom    -59.228588
   24 Atom    -22.339816
   25 Atom     -1.094455
   26 Atom    -14.747811
   27 Atom    -14.719270
   28 Atom    -14.776438
   29 Atom    -14.758658
   30 Atom    -59.226708
   31 Atom    -22.339045
   32 Atom     -1.094134
   33 Atom    -14.718173
   34 Atom     -1.105270
   35 Atom     -1.105270
   36 Atom     -1.103765
   37 Atom    -14.716325
   38 Atom     -1.101947
   39 Atom     -1.103544
   40 Atom     -1.103544
   41 Atom     -1.086987
   42 Atom    -14.747811
   43 Atom    -14.719270
   44 Atom    -14.776438
   45 Atom    -14.758658
   46 Atom    -59.226708
   47 Atom    -22.339045
   48 Atom     -1.094134
   49 Atom    -14.747221
   50 Atom    -14.718788
   51 Atom    -14.778488
   52 Atom    -14.743978
   53 Atom    -59.228588
   54 Atom    -22.339816
   55 Atom     -1.094456
   56 Atom    -14.716325
   57 Atom     -1.103544
   58 Atom     -1.103544
   59 Atom     -1.101947
   60 Atom    -14.718173
   61 Atom     -1.103765
   62 Atom     -1.105270
   63 Atom     -1.105270
   64 Atom     -1.086987
   65 Atom    -14.746286
   66 Atom    -14.718067
   67 Atom    -14.778061
   68 Atom    -14.743846
   69 Atom    -59.228764
   70 Atom    -22.338780
   71 Atom     -1.094024
   72 Atom    -14.746847
   73 Atom    -14.718376
   74 Atom    -14.779169
   75 Atom    -14.744613
   76 Atom    -59.229463
   77 Atom    -22.342195
   78 Atom     -1.095586
   79 Atom    -14.717242
   80 Atom     -1.104362
   81 Atom     -1.104362
   82 Atom     -1.102697
   83 Atom    -14.717063
   84 Atom     -1.113365
   85 Atom     -1.113365
   86 Atom    -14.773710
   87 Atom     -1.125586
   88 Atom     -1.125586
   89 Atom    -14.772634
   90 Atom     -1.126504
   91 Atom     -1.126504
   92 Atom    -14.777324
   93 Atom     -1.130714
   94 Atom     -1.130714
   95 Atom    -14.779817
   96 Atom     -1.132693
   97 Atom     -1.132693
   98 Atom    -14.781213
   99 Atom     -1.134112
  100 Atom     -1.134112
  101 Atom    -14.782313
  102 Atom     -1.135190
  103 Atom     -1.135190
  104 Atom    -14.783049
  105 Atom     -1.135903
  106 Atom     -1.135903
  107 Atom    -14.783593
  108 Atom     -1.136441
  109 Atom     -1.136441
  110 Atom    -14.783944
  111 Atom     -1.136811
  112 Atom     -1.136811
  113 Atom    -14.784226
  114 Atom     -1.136986
  115 Atom     -1.136986
  116 Atom    -14.784621
  117 Atom     -1.137118
  118 Atom     -1.137118
  119 Atom    -14.782061
  120 Atom     -1.137499
  121 Atom     -1.137499
  122 Atom    -14.789654
  123 Atom     -1.132183
  124 Atom     -1.131554
  125 Atom     -1.132183
  126 Atom    -14.717063
  127 Atom     -1.113364
  128 Atom     -1.113364
  129 Atom    -14.773710
  130 Atom     -1.125586
  131 Atom     -1.125586
  132 Atom    -14.772634
  133 Atom     -1.126504
  134 Atom     -1.126504
  135 Atom    -14.777324
  136 Atom     -1.130714
  137 Atom     -1.130714
  138 Atom    -14.779816
  139 Atom     -1.132693
  140 Atom     -1.132693
  141 Atom    -14.781213
  142 Atom     -1.134112
  143 Atom     -1.134112
  144 Atom    -14.782313
  145 Atom     -1.135190
  146 Atom     -1.135190
  147 Atom    -14.783049
  148 Atom     -1.135903
  149 Atom     -1.135903
  150 Atom    -14.783593
  151 Atom     -1.136441
  152 Atom     -1.136441
  153 Atom    -14.783944
  154 Atom     -1.136811
  155 Atom     -1.136811
  156 Atom    -14.784225
  157 Atom     -1.136986
  158 Atom     -1.136986
  159 Atom    -14.784621
  160 Atom     -1.137118
  161 Atom     -1.137118
  162 Atom    -14.782061
  163 Atom     -1.137499
  164 Atom     -1.137499
  165 Atom    -14.789653
  166 Atom     -1.131554
  167 Atom     -1.132183
  168 Atom     -1.132183
 -----------------------------------------------------------------
 Leave Link  602 at Wed Mar  4 09:56:07 2020, MaxMem=  6710886400 cpu:             174.1 elap:              21.8
 (Enter /apps/gaussian/g16-a03/l9999.exe)
 1\1\GINC-CX1-141-15-2\FOpt\RB3LYP\6-311G(d,p)\C66H86O8S8\NS5018\04-Mar
 -2020\0\\#p opt b3lyp/6-311g(d,p) pop=chelpg\\O3G_4m_0sc_opt_pop.gjf\\
 0,1\C,3.1601227547,-0.6858301831,0.0006592013\C,2.9449812325,0.6901795
 799,0.0006547451\C,1.5848978646,1.0694627418,0.0006559452\C,0.71833466
 ,-0.0059906694,0.0006613451\S,1.6057264276,-1.5160478863,0.0006697398\
 O,4.015571065,1.5301909113,0.0006496216\H,1.2438870884,2.0944002231,0.
 0006517432\C,4.4094518445,-1.3855090981,0.0006574372\C,4.6219559569,-2
 .761324952,0.0006618546\C,5.9803172133,-3.1459530516,0.0006603674\C,6.
 8495922048,-2.0732660301,0.0006548499\S,5.9662675175,-0.5608542948,0.0
 006476065\O,3.5471128938,-3.597262967,0.000668085\H,6.3179759321,-4.17
 21847681,0.0006644273\C,3.7921523652,-4.9974561936,0.0006731686\H,2.81
 27429009,-5.4728320771,0.0006778391\H,4.3442700102,-5.3041970972,-0.89
 42423038\H,4.3442749411,-5.3041896787,0.8955881386\C,10.7258543743,-2.
 7770689639,0.0006515757\C,10.5165707208,-1.4038675934,0.0006495973\C,9
 .1570419239,-1.0169284484,0.0006504324\C,8.2876816661,-2.0888757135,0.
 0006531336\S,9.1708439354,-3.6012576839,0.0006537288\O,11.5925870246,-
 0.5690787765,0.0006472616\H,8.8205290418,0.0096327298,0.0006495085\C,1
 1.9793552572,-3.4819149661,0.000651641\C,12.1873455995,-4.8548191356,0
 .0006532487\C,13.5573101827,-5.2382317371,0.000653171\C,14.3932337897,
 -4.1584069577,0.0006516281\S,13.5354797898,-2.6594465415,0.0006494354\
 O,11.1131385836,-5.6941114682,0.0006549498\H,13.9063406246,-6.26053476
 88,0.0006544086\C,11.3499467141,0.8316400063,0.0006461505\H,10.7984125
 192,1.1395171543,0.8955265933\H,10.7984106346,1.1395154106,-0.89423373
 29\H,12.3302465731,1.3051270808,0.0006446418\C,11.3620321631,-7.092858
 4129,0.0006563228\H,10.3842069485,-7.5716403197,0.0006573974\H,11.9147
 816785,-7.3992614528,-0.8942228272\H,11.9147826966,-7.3992595132,0.895
 5355109\H,15.4720523195,-4.1569300663,0.0006513014\C,-11.9794572833,3.
 4818813842,0.0006721922\C,-12.1874615525,4.8547832379,0.0006789126\C,-
 13.5574296791,5.2381823431,0.0006798069\C,-14.3933425792,4.1583491905,
 0.0006735329\S,-13.5355738769,2.6593971663,0.0006681956\O,-11.11326206
 81,5.694085529,0.0006835417\H,-13.9064701515,6.2604819129,0.0006844136
 \C,-10.7259479838,2.7770506396,0.000669014\C,-10.5166462639,1.40385124
 65,0.0006623382\C,-9.1571121228,1.0169317866,0.0006608781\C,-8.2877664
 811,2.0888912324,0.0006667148\S,-9.170949861,3.6012605211,0.0006731696
 \O,-11.592650583,0.5690481722,0.0006578997\H,-8.8205832257,-0.00962419
 38,0.0006558905\C,-11.3621683367,7.0928301291,0.0006906966\H,-11.91492
 15466,7.3992226675,0.8955711707\H,-11.9149207022,7.3992319404,-0.89418
 71276\H,-10.3843474723,7.5716209191,0.0006936359\C,-11.3499884868,-0.8
 316701828,0.0006510737\H,-12.3302819841,-1.3051697638,0.0006484842\H,-
 10.7984487643,-1.1395305387,-0.894230962\H,-10.7984492598,-1.139539316
 2,0.8955303946\H,-15.4721611111,4.1568616235,0.0006724417\C,-4.4095249
 635,1.3855779773,0.0006675382\C,-4.6220503642,2.761390336,0.00067139\C
 ,-5.9804168948,3.1459993933,0.0006712163\C,-6.84967685,2.0733003886,0.
 0006675684\S,-5.9663311507,0.5609009464,0.0006635659\O,-3.5472208195,3
 .5973474395,0.0006744691\H,-6.3180895181,4.1722265637,0.0006737459\C,-
 3.1601933358,0.68590519,0.0006662791\C,-2.9450514142,-0.6901042003,0.0
 00662499\C,-1.5849676278,-1.0693860894,0.0006604859\C,-0.718405042,0.0
 060680848,0.0006626987\S,-1.605796733,1.5161248086,0.000669746\O,-4.01
 56431623,-1.5301120791,0.0006601886\H,-1.2439557353,-2.0943231596,0.00
 06564517\C,-3.7922855035,4.9975358543,0.000679216\H,-4.3444118274,5.30
 42603172,0.8955950534\H,-4.3444105084,5.3042666402,-0.8942352749\H,-2.
 8128848412,5.4729301112,0.000681617\C,3.7714276607,2.9401809296,0.0006
 331435\H,3.1881940924,3.2110604553,-0.888535115\H,3.1881958153,3.21108
 17408,0.8897960876\C,5.1148147169,3.6509332554,0.0006237404\H,5.681117
 4249,3.326742221,0.8798994918\H,5.6811156571,3.3267227441,-0.878645908
 4\C,4.9690015312,5.1768877035,0.0006067339\H,4.3886582315,5.4895066787
 ,-0.8768249822\H,4.3886592971,5.4895264834,0.878032156\C,6.3146839181,
 5.911453937,0.0005975739\H,6.8958381608,5.5995572456,-0.8764621751\H,6
 .8958378092,5.5995796867,0.8776655619\C,6.1774553852,7.4380124051,0.00
 05778518\H,5.5948948582,7.7486408299,-0.8763121628\H,5.5948932261,7.74
 8663436,0.8774587557\C,7.5215407064,8.1751158538,0.0005696632\H,8.1042
 128252,7.8645243983,-0.8762946184\H,8.1042091672,7.864550602,0.8774457
 145\C,7.3840260805,9.7018620047,0.0005462416\H,6.801027234,10.01218072
 01,0.8773058866\H,6.8010358159,10.0121543584,-0.876228411\C,8.72737487
 24,10.440315457,0.0005418633\H,9.3104520852,10.1301246038,-0.876229943
 3\H,9.310438387,10.130159523,0.8773352473\C,8.5890377735,11.9670045288
 ,0.0005099345\H,8.0057941338,12.2770370404,0.877235801\H,8.0058212499,
 12.2770022691,-0.8762463573\C,9.931922923,12.706301636,0.0005166462\H,
 10.5152246106,12.3963911694,-0.8762052998\H,10.5151861171,12.396443584
 5,0.8772826696\C,9.7930102915,14.232960479,0.0004674657\H,9.2096768588
 ,14.5427551231,-0.8763155145\H,9.2096285902,14.542807982,0.8771996386\
 C,11.1353419216,14.9728882623,0.0004825635\H,11.7194582948,14.66394591
 69,-0.8762478838\H,11.7194059177,14.6640040636,0.8772683564\C,10.99710
 4743,16.4996319663,0.0004275628\H,10.414083861,16.8086210441,0.8765500
 597\H,10.414139763,16.8085628466,-0.8757526771\C,12.3429599025,17.2302
 168612,0.0004461866\H,12.9349075361,16.968689154,-0.8823069756\H,12.20
 93176814,18.3154976902,0.0004046938\H,12.9348502819,16.9687496935,0.88
 32557007\C,-3.7715024059,-2.9401062762,0.0006486856\H,-3.1882729863,-3
 .2109876818,-0.8885210481\H,-3.1882686526,-3.2110019167,0.8898112314\C
 ,-5.1148920346,-3.6508515679,0.0006463647\H,-5.6811897895,-3.326655990
 1,0.8799234991\H,-5.6811948018,-3.3266408654,-0.8786219701\C,-4.969086
 5578,-5.1768071757,0.000632311\H,-4.3887482039,-5.4894310472,-0.876800
 8744\H,-4.3887429561,-5.4894470571,0.8780563804\C,-6.3147733035,-5.911
 3654957,0.0006295787\H,-6.8959298458,-5.5994648363,-0.8764272388\H,-6.
 8959209662,-5.5994878048,0.8777004475\C,-6.1775544542,-7.4379247124,0.
 000608371\H,-5.595002608,-7.748556686,-0.8762861373\H,-5.5949880272,-7
 .7485802757,0.8774848214\C,-7.5216450401,-8.17501904,0.0006096401\H,-8
 .1043228145,-7.8644199086,-0.8762481871\H,-8.1043031371,-7.8644526447,
 0.8774921382\C,-7.3841414843,-9.7017659065,0.0005791428\H,-6.801162892
 2,-10.012059566,-0.8762028428\H,-6.8011361635,-10.0120927036,0.8773315
 788\C,-8.7274961683,-10.440209441,0.0005858305\H,-9.3105807363,-10.130
 0088268,-0.8761775996\H,-9.3105471275,-10.1300538107,0.8773876504\C,-8
 .58917026,-11.9668993712,0.0005431313\H,-8.0059683724,-12.2768962653,-
 0.8762231537\H,-8.0059163467,-12.2769411524,0.8772589856\C,-9.93206041
 57,-12.7061873057,0.0005648128\H,-10.5153751033,-12.396264036,-0.87614
 38725\H,-10.5153066454,-12.3963347512,0.8773441028\C,-9.7931575385,-14
 .2328472307,0.0004970719\H,-9.2098434309,-14.5426359712,-0.8763008045\
 H,-9.2097602685,-14.5427074092,0.877214382\C,-11.1354935824,-14.972766
 4636,0.0005311059\H,-11.719537428,-14.663889713,0.8773330267\H,-11.719
 6266865,-14.6638096911,-0.8761831572\C,-10.9972662074,-16.4995113169,0
 .0004539968\H,-10.4142277775,-16.8085149242,0.8765597908\H,-10.4143221
 615,-16.8084346476,-0.8757428482\C,-12.3431259556,-17.2300870997,0.000
 493082\H,-12.2094914484,-18.3153689675,0.0004342338\H,-12.934994928,-1
 6.9686276205,0.8833191715\H,-12.9350916629,-16.968543951,-0.8822434519
 \\Version=ES64L-G16RevA.03\State=1-A\HF=-6355.0265977\RMSD=2.911e-09\R
 MSF=8.652e-07\Dipole=-0.0000058,-0.0000371,-0.0000125\Quadrupole=-2.54
 7443,46.0104381,-43.4629951,-12.6253101,-0.0000062,0.0000451\PG=C01 [X
 (C66H86O8S8)]\\@


 IF OTHER PEOPLE ARE GOING TO TALK, CONVERSATION IS SIMPLY IMPOSSIBLE.

                                               -- WHISTLER'S PRINCIPLE
 Job cpu time:       0 days 15 hours 17 minutes 41.0 seconds.
 Elapsed time:       0 days  1 hours 54 minutes 56.1 seconds.
 File lengths (MBytes):  RWF=   2578 Int=      0 D2E=      0 Chk=    311 Scr=      1
 Normal termination of Gaussian 16 at Wed Mar  4 09:56:08 2020.
