 Entering Gaussian System, Link 0=g16
 Input=GS_cryst_pop.gjf
 Output=GS_cryst_pop.log
 Initial command:
 /apps/gaussian/g16-a03/l1.exe "/tmp/pbs.1061653.pbs/Gau-20316.inp" -scrdir="/tmp/pbs.1061653.pbs/"
 Entering Link 1 = /apps/gaussian/g16-a03/l1.exe PID=     20382.
  
 Copyright (c) 1988,1990,1992,1993,1995,1998,2003,2009,2016,
            Gaussian, Inc.  All Rights Reserved.
  
 This is part of the Gaussian(R) 16 program.  It is based on
 the Gaussian(R) 09 system (copyright 2009, Gaussian, Inc.),
 the Gaussian(R) 03 system (copyright 2003, Gaussian, Inc.),
 the Gaussian(R) 98 system (copyright 1998, Gaussian, Inc.),
 the Gaussian(R) 94 system (copyright 1995, Gaussian, Inc.),
 the Gaussian 92(TM) system (copyright 1992, Gaussian, Inc.),
 the Gaussian 90(TM) system (copyright 1990, Gaussian, Inc.),
 the Gaussian 88(TM) system (copyright 1988, Gaussian, Inc.),
 the Gaussian 86(TM) system (copyright 1986, Carnegie Mellon
 University), and the Gaussian 82(TM) system (copyright 1983,
 Carnegie Mellon University). Gaussian is a federally registered
 trademark of Gaussian, Inc.
  
 This software contains proprietary and confidential information,
 including trade secrets, belonging to Gaussian, Inc.
  
 This software is provided under written license and may be
 used, copied, transmitted, or stored only in accord with that
 written license.
  
 The following legend is applicable only to US Government
 contracts under FAR:
  
                    RESTRICTED RIGHTS LEGEND
  
 Use, reproduction and disclosure by the US Government is
 subject to restrictions as set forth in subparagraphs (a)
 and (c) of the Commercial Computer Software - Restricted
 Rights clause in FAR 52.227-19.
  
 Gaussian, Inc.
 340 Quinnipiac St., Bldg. 40, Wallingford CT 06492
  
  
 ---------------------------------------------------------------
 Warning -- This program may not be used in any manner that
 competes with the business of Gaussian, Inc. or will provide
 assistance to any competitor of Gaussian, Inc.  The licensee
 of this program is prohibited from giving any competitor of
 Gaussian, Inc. access to this program.  By using this program,
 the user acknowledges that Gaussian, Inc. is engaged in the
 business of creating and licensing software in the field of
 computational chemistry and represents and warrants to the
 licensee that it is not a competitor of Gaussian, Inc. and that
 it will not use this program in any manner prohibited above.
 ---------------------------------------------------------------
  

 Cite this work as:
 Gaussian 16, Revision A.03,
 M. J. Frisch, G. W. Trucks, H. B. Schlegel, G. E. Scuseria, 
 M. A. Robb, J. R. Cheeseman, G. Scalmani, V. Barone, 
 G. A. Petersson, H. Nakatsuji, X. Li, M. Caricato, A. V. Marenich, 
 J. Bloino, B. G. Janesko, R. Gomperts, B. Mennucci, H. P. Hratchian, 
 J. V. Ortiz, A. F. Izmaylov, J. L. Sonnenberg, D. Williams-Young, 
 F. Ding, F. Lipparini, F. Egidi, J. Goings, B. Peng, A. Petrone, 
 T. Henderson, D. Ranasinghe, V. G. Zakrzewski, J. Gao, N. Rega, 
 G. Zheng, W. Liang, M. Hada, M. Ehara, K. Toyota, R. Fukuda, 
 J. Hasegawa, M. Ishida, T. Nakajima, Y. Honda, O. Kitao, H. Nakai, 
 T. Vreven, K. Throssell, J. A. Montgomery, Jr., J. E. Peralta, 
 F. Ogliaro, M. J. Bearpark, J. J. Heyd, E. N. Brothers, K. N. Kudin, 
 V. N. Staroverov, T. A. Keith, R. Kobayashi, J. Normand, 
 K. Raghavachari, A. P. Rendell, J. C. Burant, S. S. Iyengar, 
 J. Tomasi, M. Cossi, J. M. Millam, M. Klene, C. Adamo, R. Cammi, 
 J. W. Ochterski, R. L. Martin, K. Morokuma, O. Farkas, 
 J. B. Foresman, and D. J. Fox, Gaussian, Inc., Wallingford CT, 2016.
 
 ******************************************
 Gaussian 16:  ES64L-G16RevA.03 25-Dec-2016
                11-Feb-2020 
 ******************************************
 %mem=50GB
 %nprocshared=16
 Will use up to   16 processors via shared memory.
 --------------------------
 #p pop=MKUFF b3lyp/lanl2dz
 --------------------------
 1/38=1,172=1/1;
 2/12=2,17=6,18=5,40=1/2;
 3/5=6,6=3,11=2,25=1,30=1,74=-5/1,2,3;
 4//1;
 5/5=2,38=5/2;
 6/7=2,8=2,9=2,10=2,15=8,20=4,28=1/1,2;
 99/5=1,9=1/99;
 Leave Link    1 at Tue Feb 11 15:00:29 2020, MaxMem=  6710886400 cpu:               0.6 elap:               0.0
 (Enter /apps/gaussian/g16-a03/l101.exe)
 ----------------
 CSD ENTRY IM1704
 ----------------
 Symbolic Z-matrix:
 Charge =  0 Multiplicity = 1
 C                    0     1.84      6.49      9.1 
 C                    0     0.64      6.58      9.8 
 C                    0     0.        5.34      10.02 
 C                    0     0.68      4.28      9.5 
 S                    0     2.11      4.81      8.7 
 O                    0     0.21      7.81      10.2 
 H                    0    -0.83      5.26      10.48 
 Sn                   0     0.17      2.2       9.53 
 C                    0     1.25      1.34      7.9 
 H                    0     2.14      1.74      7.85 
 H                    0     1.33      0.37      8.04 
 H                    0     0.76      1.5       7.07 
 C                    0     0.75      1.29      11.39 
 H                    0     0.3       1.75      12.13 
 H                    0     0.5       0.34      11.38 
 H                    0     1.72      1.37      11.5 
 C                    0    -1.94      2.06      9.27 
 H                    0    -2.29      2.91      8.92 
 H                    0    -2.14      1.34      8.63 
 H                    0    -2.36      1.86      10.13 
 C                    0     2.75      7.54      8.75 
 C                    0     3.94      7.45      8.05 
 C                    0     4.59      8.68      7.83 
 C                    0     3.91      9.75      8.36 
 S                    0     2.48      9.21      9.15 
 O                    0     4.38      6.21      7.66 
 H                    0     5.42      8.77      7.37 
 Sn                   0     4.42      11.82     8.32 
 C                    0     3.34      12.69     9.95 
 H                    0     2.45      12.29     10. 
 H                    0     3.26      13.65     9.81 
 H                    0     3.82      12.52     10.79 
 C                    0     3.83      12.73     6.47 
 H                    0     4.29      12.28     5.72 
 H                    0     4.09      13.68     6.47 
 H                    0     2.86      12.65     6.36 
 C                    0     6.53      11.97     8.58 
 H                    0     6.87      11.12     8.93 
 H                    0     6.73      12.68     9.22 
 H                    0     6.95      12.17     7.72 
 C                    0    -0.92      7.84      11.09 
 H                    0    -1.72      7.51      10.62 
 H                    0    -0.75      7.26      11.87 
 C                    0    -1.12      9.25      11.52 
 H                    0    -1.93      9.31      12.1 
 H                    0    -1.27      9.83      10.73 
 O                    0     0.01      9.69      12.24 
 C                    0    -0.1       11.03     12.68 
 H                    0    -0.51      11.58     11.98 
 H                    0    -0.67      11.07     13.49 
 C                    0     1.27      11.55     13. 
 H                    0     1.23      12.54     13.1 
 H                    0     1.89      11.34     12.26 
 O                    0     1.74      10.97     14.21 
 C                    0     3.15      11.02     14.35 
 H                    0     3.42      10.41     15.08 
 H                    0     3.56      10.68     13.52 
 C                    0     3.73      12.37     14.64 
 H                    0     4.66      12.26     14.97 
 H                    0     3.2       12.81     15.34 
 O                    0     3.73      13.16     13.47 
 C                    0     4.42      14.38     13.65 
 H                    0     4.04      14.86     14.4 
 H                    0     5.37      14.19     13.82 
 H                    0     4.34      14.92     12.83 
 C                    0     5.51      6.19      6.77 
 H                    0     6.31      6.52      7.23 
 H                    0     5.34      6.77      5.98 
 C                    0     5.71      4.78      6.33 
 H                    0     6.51      4.72      5.75 
 H                    0     5.85      4.2       7.12 
 O                    0     4.58      4.33      5.61 
 C                    0     4.68      3.        5.17 
 H                    0     5.1       2.44      5.87 
 H                    0     5.26      2.95      4.36 
 C                    0     3.32      2.47      4.85 
 H                    0     3.35      1.49      4.76 
 H                    0     2.7       2.69      5.59 
 O                    0     2.85      3.06      3.65 
 C                    0     1.43      3.01      3.5 
 H                    0     1.17      3.62      2.77 
 H                    0     1.02      3.35      4.34 
 C                    0     0.86      1.66      3.21 
 H                    0    -0.07      1.76      2.88 
 H                    0     1.39      1.22      2.51 
 O                    0     0.86      0.86      4.38 
 C                    0     0.17     -0.35      4.21 
 H                    0     0.55     -0.84      3.45 
 H                    0    -0.78     -0.17      4.03 
 H                    0     0.25     -0.9       5.02 
 C                    0     0.46     -0.53     -0.17 
 C                    0     1.65     -0.43     -0.88 
 C                    0     2.29     -1.67     -1.09 
 C                    0     1.61     -2.73     -0.57 
 S                    0     0.18     -2.2       0.22 
 O                    0     2.08      0.8      -1.27 
 H                    0     3.12     -1.76     -1.55 
 Sn                   0     2.12     -4.81     -0.61 
 C                    0     1.05     -5.68      1.02 
 H                    0     0.15     -5.27      1.08 
 H                    0     0.96     -6.64      0.88 
 H                    0     1.53     -5.51      1.86 
 C                    0     1.54     -5.72     -2.46 
 H                    0     1.99     -5.27     -3.2 
 H                    0     1.79     -6.67     -2.45 
 H                    0     0.57     -5.64     -2.57 
 C                    0     4.24     -4.95     -0.34 
 H                    0     4.58     -4.1       0. 
 H                    0     4.44     -5.67      0.29 
 H                    0     4.66     -5.15     -1.2 
 C                    0    -0.46      0.53      0.17 
 C                    0    -1.65      0.43      0.88 
 C                    0    -2.29      1.67      1.09 
 C                    0    -1.61      2.73      0.57 
 S                    0    -0.18      2.2      -0.22 
 O                    0    -2.08     -0.8       1.27 
 H                    0    -3.12      1.76      1.55 
 Sn                   0    -2.12      4.81      0.61 
 C                    0    -1.05      5.68     -1.02 
 H                    0    -0.15      5.27     -1.08 
 H                    0    -0.96      6.64     -0.88 
 H                    0    -1.53      5.51     -1.86 
 C                    0    -1.54      5.72      2.46 
 H                    0    -1.99      5.27      3.2 
 H                    0    -1.79      6.67      2.45 
 H                    0    -0.57      5.64      2.57 
 C                    0    -4.24      4.95      0.34 
 H                    0    -4.58      4.1       0. 
 H                    0    -4.44      5.67     -0.29 
 H                    0    -4.66      5.15      1.2 
 C                    0     3.21      0.83     -2.16 
 H                    0     4.02      0.49     -1.69 
 H                    0     3.04      0.24     -2.94 
 C                    0     3.42      2.24     -2.6 
 H                    0     4.22      2.29     -3.17 
 H                    0     3.56      2.81     -1.81 
 O                    0     2.29      2.68     -3.31 
 C                    0     2.39      4.02     -3.76 
 H                    0     2.81      4.57     -3.05 
 H                    0     2.96      4.06     -4.56 
 C                    0     1.02      4.54     -4.07 
 H                    0     1.06      5.53     -4.17 
 H                    0     0.4       4.33     -3.33 
 O                    0     0.56      3.96     -5.28 
 C                    0    -0.86      4.01     -5.42 
 H                    0    -1.12      3.39     -6.16 
 H                    0    -1.27      3.66     -4.59 
 C                    0    -1.44      5.35     -5.71 
 H                    0    -2.36      5.25     -6.05 
 H                    0    -0.9       5.8      -6.42 
 O                    0    -1.44      6.15     -4.54 
 C                    0    -2.13      7.37     -4.72 
 H                    0    -1.75      7.85     -5.48 
 H                    0    -3.08      7.18     -4.89 
 H                    0    -2.05      7.91     -3.91 
 C                    0    -3.21     -0.83      2.16 
 H                    0    -4.02     -0.49      1.69 
 H                    0    -3.04     -0.24      2.94 
 C                    0    -3.42     -2.24      2.6 
 H                    0    -4.22     -2.29      3.17 
 H                    0    -3.56     -2.81      1.81 
 O                    0    -2.29     -2.68      3.31 
 C                    0    -2.39     -4.02      3.76 
 H                    0    -2.81     -4.57      3.05 
 H                    0    -2.96     -4.06      4.56 
 C                    0    -1.02     -4.54      4.07 
 H                    0    -1.06     -5.53      4.17 
 H                    0    -0.4      -4.33      3.33 
 O                    0    -0.56     -3.96      5.28 
 C                    0     0.86     -4.01      5.42 
 H                    0     1.12     -3.39      6.16 
 H                    0     1.27     -3.66      4.59 
 C                    0     1.44     -5.35      5.71 
 H                    0     2.36     -5.25      6.05 
 H                    0     0.9      -5.8       6.42 
 O                    0     1.44     -6.15      4.54 
 C                    0     2.13     -7.37      4.72 
 H                    0     1.75     -7.85      5.48 
 H                    0     3.08     -7.18      4.89 
 H                    0     2.05     -7.91      3.91 
 
 ITRead=  0  0  0  0  0  0  0  0  0  0  0  0  0  0  0  0  0  0  0  0
 ITRead=  0  0  0  0  0  0  0  0  0  0  0  0  0  0  0  0  0  0  0  0
 ITRead=  0  0  0  0  0  0  0  0  0  0  0  0  0  0  0  0  0  0  0  0
 ITRead=  0  0  0  0  0  0  0  0  0  0  0  0  0  0  0  0  0  0  0  0
 ITRead=  0  0  0  0  0  0  0  0  0  0  0  0  0  0  0  0  0  0  0  0
 ITRead=  0  0  0  0  0  0  0  0  0  0  0  0  0  0  0  0  0  0  0  0
 ITRead=  0  0  0  0  0  0  0  0  0  0  0  0  0  0  0  0  0  0  0  0
 ITRead=  0  0  0  0  0  0  0  0  0  0  0  0  0  0  0  0  0  0  0  0
 ITRead=  0  0  0  0  0  0  0  0  0  0  0  0  0  0  0  0  0  0  0  0
 MicOpt= -1 -1 -1 -1 -1 -1 -1 -1 -1 -1 -1 -1 -1 -1 -1 -1 -1 -1 -1 -1
 MicOpt= -1 -1 -1 -1 -1 -1 -1 -1 -1 -1 -1 -1 -1 -1 -1 -1 -1 -1 -1 -1
 MicOpt= -1 -1 -1 -1 -1 -1 -1 -1 -1 -1 -1 -1 -1 -1 -1 -1 -1 -1 -1 -1
 MicOpt= -1 -1 -1 -1 -1 -1 -1 -1 -1 -1 -1 -1 -1 -1 -1 -1 -1 -1 -1 -1
 MicOpt= -1 -1 -1 -1 -1 -1 -1 -1 -1 -1 -1 -1 -1 -1 -1 -1 -1 -1 -1 -1
 MicOpt= -1 -1 -1 -1 -1 -1 -1 -1 -1 -1 -1 -1 -1 -1 -1 -1 -1 -1 -1 -1
 MicOpt= -1 -1 -1 -1 -1 -1 -1 -1 -1 -1 -1 -1 -1 -1 -1 -1 -1 -1 -1 -1
 MicOpt= -1 -1 -1 -1 -1 -1 -1 -1 -1 -1 -1 -1 -1 -1 -1 -1 -1 -1 -1 -1
 MicOpt= -1 -1 -1 -1 -1 -1 -1 -1 -1 -1 -1 -1 -1 -1 -1 -1 -1 -1 -1 -1
 NAtoms=    180 NQM=      180 NQMF=       0 NMMI=      0 NMMIF=      0
                NMic=       0 NMicF=      0.
                    Isotopes and Nuclear Properties:
 (Nuclear quadrupole moments (NQMom) in fm**2, nuclear magnetic moments (NMagM)
  in nuclear magnetons)

  Atom         1           2           3           4           5           6           7           8           9          10
 IAtWgt=          12          12          12          12          32          16           1         118          12           1
 AtmWgt=  12.0000000  12.0000000  12.0000000  12.0000000  31.9720718  15.9949146   1.0078250 117.9018000  12.0000000   1.0078250
 NucSpn=           0           0           0           0           0           0           1           0           0           1
 AtZEff=  -0.0000000  -0.0000000  -0.0000000  -0.0000000  -0.0000000  -0.0000000  -0.0000000  -0.0000000  -0.0000000  -0.0000000
 NQMom=    0.0000000   0.0000000   0.0000000   0.0000000   0.0000000   0.0000000   0.0000000   0.0000000   0.0000000   0.0000000
 NMagM=    0.0000000   0.0000000   0.0000000   0.0000000   0.0000000   0.0000000   2.7928460   0.0000000   0.0000000   2.7928460
 AtZNuc=   6.0000000   6.0000000   6.0000000   6.0000000  16.0000000   8.0000000   1.0000000  50.0000000   6.0000000   1.0000000

  Atom        11          12          13          14          15          16          17          18          19          20
 IAtWgt=           1           1          12           1           1           1          12           1           1           1
 AtmWgt=   1.0078250   1.0078250  12.0000000   1.0078250   1.0078250   1.0078250  12.0000000   1.0078250   1.0078250   1.0078250
 NucSpn=           1           1           0           1           1           1           0           1           1           1
 AtZEff=  -0.0000000  -0.0000000  -0.0000000  -0.0000000  -0.0000000  -0.0000000  -0.0000000  -0.0000000  -0.0000000  -0.0000000
 NQMom=    0.0000000   0.0000000   0.0000000   0.0000000   0.0000000   0.0000000   0.0000000   0.0000000   0.0000000   0.0000000
 NMagM=    2.7928460   2.7928460   0.0000000   2.7928460   2.7928460   2.7928460   0.0000000   2.7928460   2.7928460   2.7928460
 AtZNuc=   1.0000000   1.0000000   6.0000000   1.0000000   1.0000000   1.0000000   6.0000000   1.0000000   1.0000000   1.0000000

  Atom        21          22          23          24          25          26          27          28          29          30
 IAtWgt=          12          12          12          12          32          16           1         118          12           1
 AtmWgt=  12.0000000  12.0000000  12.0000000  12.0000000  31.9720718  15.9949146   1.0078250 117.9018000  12.0000000   1.0078250
 NucSpn=           0           0           0           0           0           0           1           0           0           1
 AtZEff=  -0.0000000  -0.0000000  -0.0000000  -0.0000000  -0.0000000  -0.0000000  -0.0000000  -0.0000000  -0.0000000  -0.0000000
 NQMom=    0.0000000   0.0000000   0.0000000   0.0000000   0.0000000   0.0000000   0.0000000   0.0000000   0.0000000   0.0000000
 NMagM=    0.0000000   0.0000000   0.0000000   0.0000000   0.0000000   0.0000000   2.7928460   0.0000000   0.0000000   2.7928460
 AtZNuc=   6.0000000   6.0000000   6.0000000   6.0000000  16.0000000   8.0000000   1.0000000  50.0000000   6.0000000   1.0000000

  Atom        31          32          33          34          35          36          37          38          39          40
 IAtWgt=           1           1          12           1           1           1          12           1           1           1
 AtmWgt=   1.0078250   1.0078250  12.0000000   1.0078250   1.0078250   1.0078250  12.0000000   1.0078250   1.0078250   1.0078250
 NucSpn=           1           1           0           1           1           1           0           1           1           1
 AtZEff=  -0.0000000  -0.0000000  -0.0000000  -0.0000000  -0.0000000  -0.0000000  -0.0000000  -0.0000000  -0.0000000  -0.0000000
 NQMom=    0.0000000   0.0000000   0.0000000   0.0000000   0.0000000   0.0000000   0.0000000   0.0000000   0.0000000   0.0000000
 NMagM=    2.7928460   2.7928460   0.0000000   2.7928460   2.7928460   2.7928460   0.0000000   2.7928460   2.7928460   2.7928460
 AtZNuc=   1.0000000   1.0000000   6.0000000   1.0000000   1.0000000   1.0000000   6.0000000   1.0000000   1.0000000   1.0000000

  Atom        41          42          43          44          45          46          47          48          49          50
 IAtWgt=          12           1           1          12           1           1          16          12           1           1
 AtmWgt=  12.0000000   1.0078250   1.0078250  12.0000000   1.0078250   1.0078250  15.9949146  12.0000000   1.0078250   1.0078250
 NucSpn=           0           1           1           0           1           1           0           0           1           1
 AtZEff=  -0.0000000  -0.0000000  -0.0000000  -0.0000000  -0.0000000  -0.0000000  -0.0000000  -0.0000000  -0.0000000  -0.0000000
 NQMom=    0.0000000   0.0000000   0.0000000   0.0000000   0.0000000   0.0000000   0.0000000   0.0000000   0.0000000   0.0000000
 NMagM=    0.0000000   2.7928460   2.7928460   0.0000000   2.7928460   2.7928460   0.0000000   0.0000000   2.7928460   2.7928460
 AtZNuc=   6.0000000   1.0000000   1.0000000   6.0000000   1.0000000   1.0000000   8.0000000   6.0000000   1.0000000   1.0000000

  Atom        51          52          53          54          55          56          57          58          59          60
 IAtWgt=          12           1           1          16          12           1           1          12           1           1
 AtmWgt=  12.0000000   1.0078250   1.0078250  15.9949146  12.0000000   1.0078250   1.0078250  12.0000000   1.0078250   1.0078250
 NucSpn=           0           1           1           0           0           1           1           0           1           1
 AtZEff=  -0.0000000  -0.0000000  -0.0000000  -0.0000000  -0.0000000  -0.0000000  -0.0000000  -0.0000000  -0.0000000  -0.0000000
 NQMom=    0.0000000   0.0000000   0.0000000   0.0000000   0.0000000   0.0000000   0.0000000   0.0000000   0.0000000   0.0000000
 NMagM=    0.0000000   2.7928460   2.7928460   0.0000000   0.0000000   2.7928460   2.7928460   0.0000000   2.7928460   2.7928460
 AtZNuc=   6.0000000   1.0000000   1.0000000   8.0000000   6.0000000   1.0000000   1.0000000   6.0000000   1.0000000   1.0000000

  Atom        61          62          63          64          65          66          67          68          69          70
 IAtWgt=          16          12           1           1           1          12           1           1          12           1
 AtmWgt=  15.9949146  12.0000000   1.0078250   1.0078250   1.0078250  12.0000000   1.0078250   1.0078250  12.0000000   1.0078250
 NucSpn=           0           0           1           1           1           0           1           1           0           1
 AtZEff=  -0.0000000  -0.0000000  -0.0000000  -0.0000000  -0.0000000  -0.0000000  -0.0000000  -0.0000000  -0.0000000  -0.0000000
 NQMom=    0.0000000   0.0000000   0.0000000   0.0000000   0.0000000   0.0000000   0.0000000   0.0000000   0.0000000   0.0000000
 NMagM=    0.0000000   0.0000000   2.7928460   2.7928460   2.7928460   0.0000000   2.7928460   2.7928460   0.0000000   2.7928460
 AtZNuc=   8.0000000   6.0000000   1.0000000   1.0000000   1.0000000   6.0000000   1.0000000   1.0000000   6.0000000   1.0000000

  Atom        71          72          73          74          75          76          77          78          79          80
 IAtWgt=           1          16          12           1           1          12           1           1          16          12
 AtmWgt=   1.0078250  15.9949146  12.0000000   1.0078250   1.0078250  12.0000000   1.0078250   1.0078250  15.9949146  12.0000000
 NucSpn=           1           0           0           1           1           0           1           1           0           0
 AtZEff=  -0.0000000  -0.0000000  -0.0000000  -0.0000000  -0.0000000  -0.0000000  -0.0000000  -0.0000000  -0.0000000  -0.0000000
 NQMom=    0.0000000   0.0000000   0.0000000   0.0000000   0.0000000   0.0000000   0.0000000   0.0000000   0.0000000   0.0000000
 NMagM=    2.7928460   0.0000000   0.0000000   2.7928460   2.7928460   0.0000000   2.7928460   2.7928460   0.0000000   0.0000000
 AtZNuc=   1.0000000   8.0000000   6.0000000   1.0000000   1.0000000   6.0000000   1.0000000   1.0000000   8.0000000   6.0000000

  Atom        81          82          83          84          85          86          87          88          89          90
 IAtWgt=           1           1          12           1           1          16          12           1           1           1
 AtmWgt=   1.0078250   1.0078250  12.0000000   1.0078250   1.0078250  15.9949146  12.0000000   1.0078250   1.0078250   1.0078250
 NucSpn=           1           1           0           1           1           0           0           1           1           1
 AtZEff=  -0.0000000  -0.0000000  -0.0000000  -0.0000000  -0.0000000  -0.0000000  -0.0000000  -0.0000000  -0.0000000  -0.0000000
 NQMom=    0.0000000   0.0000000   0.0000000   0.0000000   0.0000000   0.0000000   0.0000000   0.0000000   0.0000000   0.0000000
 NMagM=    2.7928460   2.7928460   0.0000000   2.7928460   2.7928460   0.0000000   0.0000000   2.7928460   2.7928460   2.7928460
 AtZNuc=   1.0000000   1.0000000   6.0000000   1.0000000   1.0000000   8.0000000   6.0000000   1.0000000   1.0000000   1.0000000

  Atom        91          92          93          94          95          96          97          98          99         100
 IAtWgt=          12          12          12          12          32          16           1         118          12           1
 AtmWgt=  12.0000000  12.0000000  12.0000000  12.0000000  31.9720718  15.9949146   1.0078250 117.9018000  12.0000000   1.0078250
 NucSpn=           0           0           0           0           0           0           1           0           0           1
 AtZEff=  -0.0000000  -0.0000000  -0.0000000  -0.0000000  -0.0000000  -0.0000000  -0.0000000  -0.0000000  -0.0000000  -0.0000000
 NQMom=    0.0000000   0.0000000   0.0000000   0.0000000   0.0000000   0.0000000   0.0000000   0.0000000   0.0000000   0.0000000
 NMagM=    0.0000000   0.0000000   0.0000000   0.0000000   0.0000000   0.0000000   2.7928460   0.0000000   0.0000000   2.7928460
 AtZNuc=   6.0000000   6.0000000   6.0000000   6.0000000  16.0000000   8.0000000   1.0000000  50.0000000   6.0000000   1.0000000

  Atom       101         102         103         104         105         106         107         108         109         110
 IAtWgt=           1           1          12           1           1           1          12           1           1           1
 AtmWgt=   1.0078250   1.0078250  12.0000000   1.0078250   1.0078250   1.0078250  12.0000000   1.0078250   1.0078250   1.0078250
 NucSpn=           1           1           0           1           1           1           0           1           1           1
 AtZEff=  -0.0000000  -0.0000000  -0.0000000  -0.0000000  -0.0000000  -0.0000000  -0.0000000  -0.0000000  -0.0000000  -0.0000000
 NQMom=    0.0000000   0.0000000   0.0000000   0.0000000   0.0000000   0.0000000   0.0000000   0.0000000   0.0000000   0.0000000
 NMagM=    2.7928460   2.7928460   0.0000000   2.7928460   2.7928460   2.7928460   0.0000000   2.7928460   2.7928460   2.7928460
 AtZNuc=   1.0000000   1.0000000   6.0000000   1.0000000   1.0000000   1.0000000   6.0000000   1.0000000   1.0000000   1.0000000

  Atom       111         112         113         114         115         116         117         118         119         120
 IAtWgt=          12          12          12          12          32          16           1         118          12           1
 AtmWgt=  12.0000000  12.0000000  12.0000000  12.0000000  31.9720718  15.9949146   1.0078250 117.9018000  12.0000000   1.0078250
 NucSpn=           0           0           0           0           0           0           1           0           0           1
 AtZEff=  -0.0000000  -0.0000000  -0.0000000  -0.0000000  -0.0000000  -0.0000000  -0.0000000  -0.0000000  -0.0000000  -0.0000000
 NQMom=    0.0000000   0.0000000   0.0000000   0.0000000   0.0000000   0.0000000   0.0000000   0.0000000   0.0000000   0.0000000
 NMagM=    0.0000000   0.0000000   0.0000000   0.0000000   0.0000000   0.0000000   2.7928460   0.0000000   0.0000000   2.7928460
 AtZNuc=   6.0000000   6.0000000   6.0000000   6.0000000  16.0000000   8.0000000   1.0000000  50.0000000   6.0000000   1.0000000

  Atom       121         122         123         124         125         126         127         128         129         130
 IAtWgt=           1           1          12           1           1           1          12           1           1           1
 AtmWgt=   1.0078250   1.0078250  12.0000000   1.0078250   1.0078250   1.0078250  12.0000000   1.0078250   1.0078250   1.0078250
 NucSpn=           1           1           0           1           1           1           0           1           1           1
 AtZEff=  -0.0000000  -0.0000000  -0.0000000  -0.0000000  -0.0000000  -0.0000000  -0.0000000  -0.0000000  -0.0000000  -0.0000000
 NQMom=    0.0000000   0.0000000   0.0000000   0.0000000   0.0000000   0.0000000   0.0000000   0.0000000   0.0000000   0.0000000
 NMagM=    2.7928460   2.7928460   0.0000000   2.7928460   2.7928460   2.7928460   0.0000000   2.7928460   2.7928460   2.7928460
 AtZNuc=   1.0000000   1.0000000   6.0000000   1.0000000   1.0000000   1.0000000   6.0000000   1.0000000   1.0000000   1.0000000

  Atom       131         132         133         134         135         136         137         138         139         140
 IAtWgt=          12           1           1          12           1           1          16          12           1           1
 AtmWgt=  12.0000000   1.0078250   1.0078250  12.0000000   1.0078250   1.0078250  15.9949146  12.0000000   1.0078250   1.0078250
 NucSpn=           0           1           1           0           1           1           0           0           1           1
 AtZEff=  -0.0000000  -0.0000000  -0.0000000  -0.0000000  -0.0000000  -0.0000000  -0.0000000  -0.0000000  -0.0000000  -0.0000000
 NQMom=    0.0000000   0.0000000   0.0000000   0.0000000   0.0000000   0.0000000   0.0000000   0.0000000   0.0000000   0.0000000
 NMagM=    0.0000000   2.7928460   2.7928460   0.0000000   2.7928460   2.7928460   0.0000000   0.0000000   2.7928460   2.7928460
 AtZNuc=   6.0000000   1.0000000   1.0000000   6.0000000   1.0000000   1.0000000   8.0000000   6.0000000   1.0000000   1.0000000

  Atom       141         142         143         144         145         146         147         148         149         150
 IAtWgt=          12           1           1          16          12           1           1          12           1           1
 AtmWgt=  12.0000000   1.0078250   1.0078250  15.9949146  12.0000000   1.0078250   1.0078250  12.0000000   1.0078250   1.0078250
 NucSpn=           0           1           1           0           0           1           1           0           1           1
 AtZEff=  -0.0000000  -0.0000000  -0.0000000  -0.0000000  -0.0000000  -0.0000000  -0.0000000  -0.0000000  -0.0000000  -0.0000000
 NQMom=    0.0000000   0.0000000   0.0000000   0.0000000   0.0000000   0.0000000   0.0000000   0.0000000   0.0000000   0.0000000
 NMagM=    0.0000000   2.7928460   2.7928460   0.0000000   0.0000000   2.7928460   2.7928460   0.0000000   2.7928460   2.7928460
 AtZNuc=   6.0000000   1.0000000   1.0000000   8.0000000   6.0000000   1.0000000   1.0000000   6.0000000   1.0000000   1.0000000

  Atom       151         152         153         154         155         156         157         158         159         160
 IAtWgt=          16          12           1           1           1          12           1           1          12           1
 AtmWgt=  15.9949146  12.0000000   1.0078250   1.0078250   1.0078250  12.0000000   1.0078250   1.0078250  12.0000000   1.0078250
 NucSpn=           0           0           1           1           1           0           1           1           0           1
 AtZEff=  -0.0000000  -0.0000000  -0.0000000  -0.0000000  -0.0000000  -0.0000000  -0.0000000  -0.0000000  -0.0000000  -0.0000000
 NQMom=    0.0000000   0.0000000   0.0000000   0.0000000   0.0000000   0.0000000   0.0000000   0.0000000   0.0000000   0.0000000
 NMagM=    0.0000000   0.0000000   2.7928460   2.7928460   2.7928460   0.0000000   2.7928460   2.7928460   0.0000000   2.7928460
 AtZNuc=   8.0000000   6.0000000   1.0000000   1.0000000   1.0000000   6.0000000   1.0000000   1.0000000   6.0000000   1.0000000

  Atom       161         162         163         164         165         166         167         168         169         170
 IAtWgt=           1          16          12           1           1          12           1           1          16          12
 AtmWgt=   1.0078250  15.9949146  12.0000000   1.0078250   1.0078250  12.0000000   1.0078250   1.0078250  15.9949146  12.0000000
 NucSpn=           1           0           0           1           1           0           1           1           0           0
 AtZEff=  -0.0000000  -0.0000000  -0.0000000  -0.0000000  -0.0000000  -0.0000000  -0.0000000  -0.0000000  -0.0000000  -0.0000000
 NQMom=    0.0000000   0.0000000   0.0000000   0.0000000   0.0000000   0.0000000   0.0000000   0.0000000   0.0000000   0.0000000
 NMagM=    2.7928460   0.0000000   0.0000000   2.7928460   2.7928460   0.0000000   2.7928460   2.7928460   0.0000000   0.0000000
 AtZNuc=   1.0000000   8.0000000   6.0000000   1.0000000   1.0000000   6.0000000   1.0000000   1.0000000   8.0000000   6.0000000

  Atom       171         172         173         174         175         176         177         178         179         180
 IAtWgt=           1           1          12           1           1          16          12           1           1           1
 AtmWgt=   1.0078250   1.0078250  12.0000000   1.0078250   1.0078250  15.9949146  12.0000000   1.0078250   1.0078250   1.0078250
 NucSpn=           1           1           0           1           1           0           0           1           1           1
 AtZEff=  -0.0000000  -0.0000000  -0.0000000  -0.0000000  -0.0000000  -0.0000000  -0.0000000  -0.0000000  -0.0000000  -0.0000000
 NQMom=    0.0000000   0.0000000   0.0000000   0.0000000   0.0000000   0.0000000   0.0000000   0.0000000   0.0000000   0.0000000
 NMagM=    2.7928460   2.7928460   0.0000000   2.7928460   2.7928460   0.0000000   0.0000000   2.7928460   2.7928460   2.7928460
 AtZNuc=   1.0000000   1.0000000   6.0000000   1.0000000   1.0000000   8.0000000   6.0000000   1.0000000   1.0000000   1.0000000
 Leave Link  101 at Tue Feb 11 15:00:29 2020, MaxMem=  6710886400 cpu:               5.2 elap:               0.3
 (Enter /apps/gaussian/g16-a03/l202.exe)
 Stoichiometry    C56H100O16S4Sn4
 Framework group  C1[X(C56H100O16S4Sn4)]
 Deg. of freedom   534
 Full point group                 C1      NOp   1
 Largest Abelian subgroup         C1      NOp   1
 Largest concise Abelian subgroup C1      NOp   1
                         Standard orientation:                         
 ---------------------------------------------------------------------
 Center     Atomic      Atomic             Coordinates (Angstroms)
 Number     Number       Type             X           Y           Z
 ---------------------------------------------------------------------
      1          6           0        5.375559   -1.406155    0.107348
      2          6           0        5.740207   -1.822665    1.384709
      3          6           0        4.891106   -2.804961    1.941236
      4          6           0        3.864801   -3.162073    1.119306
      5         16           0        3.918728   -2.259001   -0.346078
      6          8           0        6.845722   -1.269854    1.959197
      7          1           0        5.023233   -3.171687    2.810117
      8         50           0        2.293262   -4.577986    1.455245
      9          6           0        0.727807   -3.996278    0.123379
     10          1           0        1.111845   -3.715788   -0.730108
     11          1           0        0.123804   -4.758920   -0.019650
     12          1           0        0.221325   -3.262984    0.523823
     13          6           0        2.952471   -6.579065    1.024867
     14          1           0        3.719672   -6.797245    1.595393
     15          1           0        2.216467   -7.207818    1.192400
     16          1           0        3.220824   -6.635437    0.084543
     17          6           0        1.720542   -4.417084    3.501071
     18          1           0        2.058599   -3.573180    3.876629
     19          1           0        0.738755   -4.428623    3.564013
     20          1           0        2.089865   -5.171605    4.001369
     21          6           0        6.036949   -0.465381   -0.747408
     22          6           0        5.670896   -0.048564   -2.014873
     23          6           0        6.514096    0.926649   -2.582124
     24          6           0        7.554388    1.283190   -1.758189
     25         16           0        7.486474    0.380689   -0.294810
     26          8           0        4.566161   -0.615806   -2.598908
     27          1           0        6.389275    1.300152   -3.450177
     28         50           0        9.111940    2.699674   -2.096133
     29          6           0       10.684702    2.124743   -0.763439
     30          1           0       10.300664    1.844252    0.090048
     31          1           0       11.281398    2.880609   -0.621238
     32          1           0       11.189151    1.377632   -1.153638
     33          6           0        8.458005    4.693713   -1.654682
     34          1           0        7.692837    4.925710   -2.235453
     35          1           0        9.188735    5.329506   -1.833288
     36          1           0        8.189652    4.750085   -0.714358
     37          6           0        9.691967    2.545548   -4.141130
     38          1           0        9.352504    1.701951   -4.506792
     39          1           0       10.666447    2.550312   -4.204901
     40          1           0        9.322644    3.300069   -4.641429
     41          6           0        7.303302   -1.868771    3.184684
     42          1           0        6.635681   -1.722522    3.893693
     43          1           0        7.424485   -2.840125    3.060234
     44          6           0        8.592729   -1.223082    3.550007
     45          1           0        8.910134   -1.583719    4.424819
     46          1           0        8.467678   -0.244995    3.653488
     47          8           0        9.554149   -1.488600    2.552975
     48          6           0       10.811765   -0.900455    2.824615
     49          1           0       10.688354   -0.000847    3.193499
     50          1           0       11.301959   -1.451000    3.487344
     51          6           0       11.598169   -0.825228    1.549622
     52          1           0       12.382744   -0.226598    1.682976
     53          1           0       11.037551   -0.442850    0.831573
     54          8           0       12.048805   -2.121725    1.178914
     55          6           0       12.377155   -2.233969   -0.195781
     56          1           0       12.457077   -3.191983   -0.427561
     57          1           0       11.631888   -1.867116   -0.727379
     58          6           0       13.638903   -1.550008   -0.623786
     59          1           0       13.909769   -1.895549   -1.514366
     60          1           0       14.353518   -1.749897    0.019542
     61          8           0       13.434533   -0.155014   -0.696082
     62          6           0       14.543273    0.518298   -1.256657
     63          1           0       15.341613    0.304176   -0.752568
     64          1           0       14.651607    0.235489   -2.192490
     65          1           0       14.378796    1.489173   -1.229292
     66          6           0        4.115888   -0.010111   -3.823567
     67          1           0        4.776828   -0.149013   -4.533753
     68          1           0        3.988024    0.968589   -3.700294
     69          6           0        2.819780   -0.648453   -4.190067
     70          1           0        2.500968   -0.287509   -5.054983
     71          1           0        2.943424   -1.626233   -4.283652
     72          8           0        1.851053   -0.389712   -3.193863
     73          6           0        0.599338   -0.970773   -3.454779
     74          1           0        0.716848   -1.877465   -3.834387
     75          1           0        0.103243   -0.427312   -4.128232
     76          6           0       -0.192967   -1.053084   -2.190510
     77          1           0       -0.964961   -1.651978   -2.311963
     78          1           0        0.374958   -1.428685   -1.471632
     79          8           0       -0.629616    0.242842   -1.817797
     80          6           0       -0.966052    0.362740   -0.434383
     81          1           0       -1.044568    1.320448   -0.212499
     82          1           0       -0.214105   -0.011460    0.098392
     83          6           0       -2.226394   -0.321528   -0.016274
     84          1           0       -2.504567    0.017237    0.873478
     85          1           0       -2.941009   -0.121639   -0.659602
     86          8           0       -2.029331   -1.723297    0.055194
     87          6           0       -3.124084   -2.397181    0.617775
     88          1           0       -3.936411   -2.182488    0.111680
     89          1           0       -3.246405   -2.113801    1.551602
     90          1           0       -2.973594   -3.367485    0.588404
     91          6           0       -6.140911    0.690109   -0.199719
     92          6           0       -6.374812    1.243027   -1.452624
     93          6           0       -7.331171    0.537395   -2.213387
     94          6           0       -7.853954   -0.542118   -1.567052
     95         16           0       -7.140017   -0.719530   -0.015047
     96          8           0       -5.676120    2.349896   -1.822178
     97          1           0       -7.587518    0.788920   -3.096349
     98         50           0       -9.328815   -1.937896   -2.248732
     99          6           0       -9.026068   -3.692252   -1.070054
    100          1           0       -8.812963   -3.430883   -0.138404
    101          1           0       -9.833727   -4.237174   -1.076987
    102          1           0       -8.273180   -4.208961   -1.432092
    103          6           0      -11.311222   -1.177494   -1.967923
    104          1           0      -11.413484   -0.342649   -2.463076
    105          1           0      -11.963551   -1.836283   -2.292829
    106          1           0      -11.462662   -1.012698   -1.014347
    107          6           0       -8.952605   -2.296196   -4.326468
    108          1           0       -8.056556   -1.980435   -4.552500
    109          1           0       -9.029710   -3.253130   -4.509859
    110          1           0       -9.614209   -1.812736   -4.859898
    111          6           0       -5.268607    1.186838    0.838523
    112          6           0       -5.034706    0.633919    2.091428
    113          6           0       -4.078347    1.339551    2.852191
    114          6           0       -3.555564    2.419065    2.205856
    115         16           0       -4.269500    2.596477    0.653851
    116          8           0       -5.733398   -0.472950    2.460982
    117          1           0       -3.822000    1.088026    3.735152
    118         50           0       -2.080702    3.814843    2.887536
    119          6           0       -2.383449    5.569198    1.708858
    120          1           0       -2.596554    5.307830    0.777207
    121          1           0       -1.575791    6.114121    1.715791
    122          1           0       -3.136337    6.085908    2.070896
    123          6           0       -0.098296    3.054441    2.606727
    124          1           0        0.003966    2.219596    3.101880
    125          1           0        0.554033    3.713230    2.931633
    126          1           0        0.053144    2.889644    1.653151
    127          6           0       -2.456913    4.173143    4.965272
    128          1           0       -3.352962    3.857381    5.191304
    129          1           0       -2.379808    5.130077    5.148663
    130          1           0       -1.795309    3.689683    5.498701
    131          6           0       -6.089857    2.989474   -3.042695
    132          1           0       -5.910400    2.388890   -3.817095
    133          1           0       -7.065962    3.167972   -3.015154
    134          6           0       -5.323980    4.261808   -3.185517
    135          1           0       -5.555733    4.689946   -4.040144
    136          1           0       -4.360028    4.063329   -3.183850
    137          8           0       -5.635701    5.116313   -2.114420
    138          6           0       -4.943123    6.351934   -2.155362
    139          1           0       -4.007853    6.190090   -2.441853
    140          1           0       -5.368181    6.949343   -2.810288
    141          6           0       -4.962917    6.974119   -0.793050
    142          1           0       -4.300702    7.717243   -0.762406
    143          1           0       -4.709193    6.307127   -0.109789
    144          8           0       -6.259761    7.484231   -0.528319
    145          6           0       -6.516446    7.664547    0.864555
    146          1           0       -7.500406    7.796088    0.983383
    147          1           0       -6.275364    6.830114    1.339002
    148          6           0       -5.812607    8.803474    1.515367
    149          1           0       -6.242195    9.013749    2.377480
    150          1           0       -5.882171    9.613515    0.934683
    151          8           0       -4.446420    8.485950    1.719359
    152          6           0       -3.772248    9.466112    2.482035
    153          1           0       -3.875794   10.338129    2.056283
    154          1           0       -4.158248    9.491413    3.386393
    155          1           0       -2.825294    9.234450    2.542946
    156          6           0       -5.319660   -1.112527    3.681499
    157          1           0       -5.499117   -0.511943    4.455898
    158          1           0       -4.343556   -1.291025    3.653958
    159          6           0       -6.085538   -2.384861    3.824321
    160          1           0       -5.853784   -2.812999    4.678948
    161          1           0       -7.049490   -2.186382    3.822654
    162          8           0       -5.773816   -3.239366    2.753223
    163          6           0       -6.466395   -4.474987    2.794166
    164          1           0       -7.401664   -4.313144    3.080657
    165          1           0       -6.041337   -5.072397    3.449091
    166          6           0       -6.446601   -5.097173    1.431854
    167          1           0       -7.108815   -5.840296    1.401209
    168          1           0       -6.700324   -4.430181    0.748592
    169          8           0       -5.149757   -5.607284    1.167123
    170          6           0       -4.893071   -5.787601   -0.225752
    171          1           0       -3.909111   -5.919141   -0.344580
    172          1           0       -5.134154   -4.953167   -0.700198
    173          6           0       -5.596911   -6.926527   -0.876563
    174          1           0       -5.167323   -7.136802   -1.738676
    175          1           0       -5.527347   -7.736569   -0.295879
    176          8           0       -6.963097   -6.609003   -1.080555
    177          6           0       -7.637270   -7.589165   -1.843231
    178          1           0       -7.533723   -8.461183   -1.417480
    179          1           0       -7.251269   -7.614466   -2.747589
    180          1           0       -8.584224   -7.357503   -1.904143
 ---------------------------------------------------------------------
 Rotational constants (GHZ):           0.0173528           0.0061884           0.0053006
 Leave Link  202 at Tue Feb 11 15:00:30 2020, MaxMem=  6710886400 cpu:               0.1 elap:               0.0
 (Enter /apps/gaussian/g16-a03/l301.exe)
 Standard basis: LANL2DZ (5D, 7F)
 Ernie: Thresh=  0.10000D-02 Tol=  0.10000D-05 Strict=F.
 There are   912 symmetry adapted cartesian basis functions of A   symmetry.
 There are   912 symmetry adapted basis functions of A   symmetry.
   912 basis functions,  2296 primitive gaussians,   912 cartesian basis functions
   302 alpha electrons      302 beta electrons
       nuclear repulsion energy     12987.2345876786 Hartrees.



 Warning!  S  atom    5 may be hypervalent but has no d functions.
 Warning!  S  atom   25 may be hypervalent but has no d functions.
 Warning!  S  atom   95 may be hypervalent but has no d functions.
 Warning!  S  atom  115 may be hypervalent but has no d functions.



 IExCor=  402 DFT=T Ex+Corr=B3LYP ExCW=0 ScaHFX=  0.200000
 ScaDFX=  0.800000  0.720000  1.000000  0.810000 ScalE2=  1.000000  1.000000
 IRadAn=      5 IRanWt=     -1 IRanGd=            0 ICorTp=0 IEmpDi=  4
 NAtoms=  180 NActive=  180 NUniq=  180 SFac= 1.00D+00 NAtFMM=   60 NAOKFM=T Big=T
 Integral buffers will be    131072 words long.
 Raffenetti 2 integral format.
 Two-electron integral symmetry is turned on.
 Leave Link  301 at Tue Feb 11 15:00:30 2020, MaxMem=  6710886400 cpu:               1.5 elap:               0.1
 (Enter /apps/gaussian/g16-a03/l302.exe)
 NPDir=0 NMtPBC=     1 NCelOv=     1 NCel=       1 NClECP=     1 NCelD=      1
         NCelK=      1 NCelE2=     1 NClLst=     1 CellRange=     0.0.
 One-electron integrals computed using PRISM.
 One-electron integral symmetry used in STVInt
   1 Symmetry operations used in ECPInt.
 ECPInt:  NShTT=  175528 NPrTT= 1170488 LenC2=   91316 LenP2D=  279619.
 LDataN:  DoStor=T MaxTD1= 4 Len=   56
 NBasis=   912 RedAO= T EigKep=  8.95D-04  NBF=   912
 NBsUse=   912 1.00D-06 EigRej= -1.00D+00 NBFU=   912
 Precomputing XC quadrature grid using
 IXCGrd= 4 IRadAn=           5 IRanWt=          -1 IRanGd=           0 AccXCQ= 0.00D+00.
 Defaulting to unpruned grid for atomic number  50.
 Defaulting to unpruned grid for atomic number  50.
 Defaulting to unpruned grid for atomic number  50.
 Defaulting to unpruned grid for atomic number  50.
 Generated NRdTot=       0 NPtTot=           0 NUsed=           0 NTot=          32
 NSgBfM=   727   712   718   721   727 MxSgAt=   180 MxSgA2=   168.
 Leave Link  302 at Tue Feb 11 15:00:43 2020, MaxMem=  6710886400 cpu:             202.3 elap:              12.7
 (Enter /apps/gaussian/g16-a03/l303.exe)
 DipDrv:  MaxL=1.
 Leave Link  303 at Tue Feb 11 15:00:44 2020, MaxMem=  6710886400 cpu:               8.2 elap:               0.6
 (Enter /apps/gaussian/g16-a03/l401.exe)
 ExpMin= 6.30D-02 ExpMax= 7.82D+03 ExpMxC= 2.73D+02 IAcc=3 IRadAn=         5 AccDes= 0.00D+00
 Harris functional with IExCor=  402 and IRadAn=       5 diagonalized for initial guess.
 HarFok:  IExCor=  402 AccDes= 0.00D+00 IRadAn=         5 IDoV= 1 UseB2=F ITyADJ=14
 ICtDFT=  3500011 ScaDFX=  1.000000  1.000000  1.000000  1.000000
 Defaulting to unpruned grid for atomic number  50.
 FoFCou: FMM=F IPFlag=           0 FMFlag=      100000 FMFlg1=        2001
         NFxFlg=           0 DoJE=T BraDBF=F KetDBF=T FulRan=T
         wScrn=  0.000000 ICntrl=       500 IOpCl=  0 I1Cent=   200000004 NGrid=           0
         NMat0=    1 NMatS0=      1 NMatT0=    0 NMatD0=    1 NMtDS0=    0 NMtDT0=    0
 Petite list used in FoFCou.
 Harris En= -3451.22490428234    
 JPrj=0 DoOrth=F DoCkMO=F.
 Leave Link  401 at Tue Feb 11 15:01:08 2020, MaxMem=  6710886400 cpu:             364.7 elap:              22.8
 (Enter /apps/gaussian/g16-a03/l502.exe)
 Integral symmetry usage will be decided dynamically.
 Closed shell SCF:
 Using DIIS extrapolation, IDIIS=  1040.
 NGot=  6710886400 LenX=  6709195592 LenY=  6708362936
 Requested convergence on RMS density matrix=1.00D-08 within 128 cycles.
 Requested convergence on MAX density matrix=1.00D-06.
 Requested convergence on             energy=1.00D-06.
 No special actions if energy rises.
 Fock matrices will be formed incrementally for  20 cycles.
 Integral accuracy reduced to 1.0D-05 until final iterations.

 Cycle   1  Pass 0  IDiag  1:
 FoFJK:  IHMeth= 1 ICntrl=       0 DoSepK=F KAlg= 0 I1Cent=           0 FoldK=F
 IRaf= 620000000 NMat=       1 IRICut=       1 DoRegI=T DoRafI=F ISym2E= 0 IDoP0=0 IntGTp=1.
 FoFCou: FMM=T IPFlag=           0 FMFlag=      100000 FMFlg1=        2001
         NFxFlg=           0 DoJE=F BraDBF=F KetDBF=F FulRan=T
         wScrn=  0.000000 ICntrl=         0 IOpCl=  0 I1Cent=           0 NGrid=           0
         NMat0=    1 NMatS0=      1 NMatT0=    0 NMatD0=    1 NMtDS0=    0 NMtDT0=    0
 Symmetry not used in FoFCou.
 FMM levels:  10  Number of levels for PrismC:   9
 Defaulting to unpruned grid for atomic number  50.
 Defaulting to unpruned grid for atomic number  50.
 Defaulting to unpruned grid for atomic number  50.
 Defaulting to unpruned grid for atomic number  50.
 Defaulting to unpruned grid for atomic number  50.
 Defaulting to unpruned grid for atomic number  50.
 Defaulting to unpruned grid for atomic number  50.
 Defaulting to unpruned grid for atomic number  50.
 Defaulting to unpruned grid for atomic number  50.
 Defaulting to unpruned grid for atomic number  50.
 Defaulting to unpruned grid for atomic number  50.
 Defaulting to unpruned grid for atomic number  50.
 Defaulting to unpruned grid for atomic number  50.
 Defaulting to unpruned grid for atomic number  50.
 Defaulting to unpruned grid for atomic number  50.
 Defaulting to unpruned grid for atomic number  50.
 E= -3446.26032944174    
 DIIS: error= 3.84D-02 at cycle   1 NSaved=   1.
 NSaved= 1 IEnMin= 1 EnMin= -3446.26032944174     IErMin= 1 ErrMin= 3.84D-02
 ErrMax= 3.84D-02  0.00D+00 EMaxC= 1.00D-01 BMatC= 2.83D+00 BMatP= 2.83D+00
 IDIUse=3 WtCom= 6.16D-01 WtEn= 3.84D-01
 Coeff-Com:  0.100D+01
 Coeff-En:   0.100D+01
 Coeff:      0.100D+01
 Gap=     0.075 Goal=   None    Shift=    0.000
 GapD=    0.075 DampG=0.500 DampE=0.500 DampFc=0.2500 IDamp=-1.
 Damping current iteration by 2.50D-01
 RMSDP=5.11D-03 MaxDP=3.53D-01              OVMax= 3.25D-01

 Cycle   2  Pass 0  IDiag  1:
 RMSU=  1.25D-03    CP:  9.81D-01
 E= -3447.59686297417     Delta-E=       -1.336533532431 Rises=F Damp=T
 DIIS: error= 1.93D-02 at cycle   2 NSaved=   2.
 NSaved= 2 IEnMin= 2 EnMin= -3447.59686297417     IErMin= 2 ErrMin= 1.93D-02
 ErrMax= 1.93D-02  0.00D+00 EMaxC= 1.00D-01 BMatC= 6.61D-01 BMatP= 2.83D+00
 IDIUse=3 WtCom= 8.07D-01 WtEn= 1.93D-01
 Coeff-Com: -0.861D+00 0.186D+01
 Coeff-En:   0.000D+00 0.100D+01
 Coeff:     -0.695D+00 0.170D+01
 Gap=     0.136 Goal=   None    Shift=    0.000
 RMSDP=1.68D-03 MaxDP=1.26D-01 DE=-1.34D+00 OVMax= 2.15D-01

 Cycle   3  Pass 0  IDiag  1:
 RMSU=  1.19D-03    CP:  9.59D-01  1.92D+00
 E= -3449.75603169047     Delta-E=       -2.159168716305 Rises=F Damp=F
 DIIS: error= 9.11D-03 at cycle   3 NSaved=   3.
 NSaved= 3 IEnMin= 3 EnMin= -3449.75603169047     IErMin= 3 ErrMin= 9.11D-03
 ErrMax= 9.11D-03  0.00D+00 EMaxC= 1.00D-01 BMatC= 6.42D-02 BMatP= 6.61D-01
 IDIUse=3 WtCom= 9.09D-01 WtEn= 9.11D-02
 Coeff-Com: -0.272D+00 0.693D+00 0.578D+00
 Coeff-En:   0.000D+00 0.000D+00 0.100D+01
 Coeff:     -0.247D+00 0.630D+00 0.617D+00
 Gap=     0.135 Goal=   None    Shift=    0.000
 RMSDP=5.50D-04 MaxDP=4.29D-02 DE=-2.16D+00 OVMax= 7.98D-02

 Cycle   4  Pass 0  IDiag  1:
 RMSU=  4.65D-04    CP:  9.64D-01  1.84D+00  7.76D-01
 E= -3449.80281435782     Delta-E=       -0.046782667348 Rises=F Damp=F
 DIIS: error= 1.01D-02 at cycle   4 NSaved=   4.
 NSaved= 4 IEnMin= 4 EnMin= -3449.80281435782     IErMin= 3 ErrMin= 9.11D-03
 ErrMax= 1.01D-02  0.00D+00 EMaxC= 1.00D-01 BMatC= 2.53D-02 BMatP= 6.42D-02
 IDIUse=3 WtCom= 8.99D-01 WtEn= 1.01D-01
 Coeff-Com:  0.126D-01 0.540D-01 0.420D+00 0.513D+00
 Coeff-En:   0.000D+00 0.000D+00 0.273D+00 0.727D+00
 Coeff:      0.113D-01 0.486D-01 0.406D+00 0.534D+00
 Gap=     0.131 Goal=   None    Shift=    0.000
 RMSDP=3.30D-04 MaxDP=3.62D-02 DE=-4.68D-02 OVMax= 5.76D-02

 Cycle   5  Pass 0  IDiag  1:
 RMSU=  1.53D-04    CP:  9.63D-01  1.81D+00  8.44D-01  3.99D-01
 E= -3449.82619160398     Delta-E=       -0.023377246158 Rises=F Damp=F
 DIIS: error= 4.32D-03 at cycle   5 NSaved=   5.
 NSaved= 5 IEnMin= 5 EnMin= -3449.82619160398     IErMin= 5 ErrMin= 4.32D-03
 ErrMax= 4.32D-03  0.00D+00 EMaxC= 1.00D-01 BMatC= 4.00D-03 BMatP= 2.53D-02
 IDIUse=3 WtCom= 9.57D-01 WtEn= 4.32D-02
 Coeff-Com:  0.318D-01-0.254D-01 0.224D+00 0.365D+00 0.404D+00
 Coeff-En:   0.000D+00 0.000D+00 0.000D+00 0.148D+00 0.852D+00
 Coeff:      0.304D-01-0.243D-01 0.214D+00 0.356D+00 0.424D+00
 Gap=     0.134 Goal=   None    Shift=    0.000
 RMSDP=1.11D-04 MaxDP=1.06D-02 DE=-2.34D-02 OVMax= 2.05D-02

 Cycle   6  Pass 0  IDiag  1:
 RMSU=  4.21D-05    CP:  9.63D-01  1.81D+00  8.47D-01  5.53D-01  5.17D-01
 E= -3449.83056716615     Delta-E=       -0.004375562166 Rises=F Damp=F
 DIIS: error= 7.21D-04 at cycle   6 NSaved=   6.
 NSaved= 6 IEnMin= 6 EnMin= -3449.83056716615     IErMin= 6 ErrMin= 7.21D-04
 ErrMax= 7.21D-04  0.00D+00 EMaxC= 1.00D-01 BMatC= 1.75D-04 BMatP= 4.00D-03
 IDIUse=3 WtCom= 9.93D-01 WtEn= 7.21D-03
 Coeff-Com:  0.174D-01-0.218D-01 0.746D-01 0.137D+00 0.232D+00 0.561D+00
 Coeff-En:   0.000D+00 0.000D+00 0.000D+00 0.000D+00 0.000D+00 0.100D+01
 Coeff:      0.173D-01-0.216D-01 0.741D-01 0.136D+00 0.230D+00 0.564D+00
 Gap=     0.133 Goal=   None    Shift=    0.000
 RMSDP=2.50D-05 MaxDP=1.79D-03 DE=-4.38D-03 OVMax= 3.27D-03

 Cycle   7  Pass 0  IDiag  1:
 RMSU=  1.61D-05    CP:  9.63D-01  1.81D+00  8.53D-01  5.34D-01  5.61D-01
                    CP:  6.89D-01
 E= -3449.83075670803     Delta-E=       -0.000189541883 Rises=F Damp=F
 DIIS: error= 1.30D-04 at cycle   7 NSaved=   7.
 NSaved= 7 IEnMin= 7 EnMin= -3449.83075670803     IErMin= 7 ErrMin= 1.30D-04
 ErrMax= 1.30D-04  0.00D+00 EMaxC= 1.00D-01 BMatC= 1.19D-05 BMatP= 1.75D-04
 IDIUse=3 WtCom= 9.99D-01 WtEn= 1.30D-03
 Coeff-Com:  0.356D-02-0.520D-02 0.833D-02 0.183D-01 0.542D-01 0.274D+00
 Coeff-Com:  0.647D+00
 Coeff-En:   0.000D+00 0.000D+00 0.000D+00 0.000D+00 0.000D+00 0.000D+00
 Coeff-En:   0.100D+01
 Coeff:      0.356D-02-0.519D-02 0.832D-02 0.183D-01 0.541D-01 0.273D+00
 Coeff:      0.648D+00
 Gap=     0.133 Goal=   None    Shift=    0.000
 RMSDP=7.23D-06 MaxDP=6.20D-04 DE=-1.90D-04 OVMax= 1.03D-03

 Initial convergence to 1.0D-05 achieved.  Increase integral accuracy.
 Cycle   8  Pass 1  IDiag  1:
 E= -3449.83030810704     Delta-E=        0.000448600989 Rises=F Damp=F
 DIIS: error= 3.66D-04 at cycle   1 NSaved=   1.
 NSaved= 1 IEnMin= 1 EnMin= -3449.83030810704     IErMin= 1 ErrMin= 3.66D-04
 ErrMax= 3.66D-04  0.00D+00 EMaxC= 1.00D-01 BMatC= 8.10D-05 BMatP= 8.10D-05
 IDIUse=3 WtCom= 9.96D-01 WtEn= 3.66D-03
 Coeff-Com:  0.100D+01
 Coeff-En:   0.100D+01
 Coeff:      0.100D+01
 Gap=     0.133 Goal=   None    Shift=    0.000
 RMSDP=7.23D-06 MaxDP=6.20D-04 DE= 4.49D-04 OVMax= 1.40D-03

 Cycle   9  Pass 1  IDiag  1:
 RMSU=  1.58D-04    CP:  1.00D+00
 E= -3449.83042942239     Delta-E=       -0.000121315355 Rises=F Damp=F
 DIIS: error= 1.02D-04 at cycle   2 NSaved=   2.
 NSaved= 2 IEnMin= 2 EnMin= -3449.83042942239     IErMin= 2 ErrMin= 1.02D-04
 ErrMax= 1.02D-04  0.00D+00 EMaxC= 1.00D-01 BMatC= 5.02D-06 BMatP= 8.10D-05
 IDIUse=3 WtCom= 9.99D-01 WtEn= 1.02D-03
 Coeff-Com:  0.763D-01 0.924D+00
 Coeff-En:   0.000D+00 0.100D+01
 Coeff:      0.762D-01 0.924D+00
 Gap=     0.134 Goal=   None    Shift=    0.000
 RMSDP=9.42D-06 MaxDP=1.11D-03 DE=-1.21D-04 OVMax= 1.73D-03

 Cycle  10  Pass 1  IDiag  1:
 RMSU=  9.14D-06    CP:  1.00D+00  1.01D+00
 E= -3449.83041925955     Delta-E=        0.000010162843 Rises=F Damp=F
 DIIS: error= 1.98D-04 at cycle   3 NSaved=   3.
 NSaved= 3 IEnMin= 2 EnMin= -3449.83042942239     IErMin= 2 ErrMin= 1.02D-04
 ErrMax= 1.98D-04  0.00D+00 EMaxC= 1.00D-01 BMatC= 1.42D-05 BMatP= 5.02D-06
 IDIUse=3 WtCom= 4.15D-01 WtEn= 5.85D-01
 Coeff-Com: -0.596D-02 0.631D+00 0.375D+00
 Coeff-En:   0.000D+00 0.694D+00 0.306D+00
 Coeff:     -0.248D-02 0.668D+00 0.335D+00
 Gap=     0.133 Goal=   None    Shift=    0.000
 RMSDP=5.32D-06 MaxDP=6.77D-04 DE= 1.02D-05 OVMax= 1.11D-03

 Cycle  11  Pass 1  IDiag  1:
 RMSU=  1.17D-06    CP:  1.00D+00  1.02D+00  4.35D-01
 E= -3449.83043478753     Delta-E=       -0.000015527974 Rises=F Damp=F
 DIIS: error= 2.36D-05 at cycle   4 NSaved=   4.
 NSaved= 4 IEnMin= 4 EnMin= -3449.83043478753     IErMin= 4 ErrMin= 2.36D-05
 ErrMax= 2.36D-05  0.00D+00 EMaxC= 1.00D-01 BMatC= 2.75D-07 BMatP= 5.02D-06
 IDIUse=1 WtCom= 1.00D+00 WtEn= 0.00D+00
 Coeff-Com: -0.500D-02 0.395D+00 0.194D+00 0.416D+00
 Coeff:     -0.500D-02 0.395D+00 0.194D+00 0.416D+00
 Gap=     0.134 Goal=   None    Shift=    0.000
 RMSDP=8.67D-07 MaxDP=8.45D-05 DE=-1.55D-05 OVMax= 1.08D-04

 Cycle  12  Pass 1  IDiag  1:
 RMSU=  4.14D-07    CP:  1.00D+00  1.02D+00  3.80D-01  5.18D-01
 E= -3449.83043510084     Delta-E=       -0.000000313317 Rises=F Damp=F
 DIIS: error= 4.33D-06 at cycle   5 NSaved=   5.
 NSaved= 5 IEnMin= 5 EnMin= -3449.83043510084     IErMin= 5 ErrMin= 4.33D-06
 ErrMax= 4.33D-06  0.00D+00 EMaxC= 1.00D-01 BMatC= 5.76D-09 BMatP= 2.75D-07
 IDIUse=1 WtCom= 1.00D+00 WtEn= 0.00D+00
 Coeff-Com: -0.272D-02 0.208D+00 0.992D-01 0.247D+00 0.449D+00
 Coeff:     -0.272D-02 0.208D+00 0.992D-01 0.247D+00 0.449D+00
 Gap=     0.134 Goal=   None    Shift=    0.000
 RMSDP=1.32D-07 MaxDP=1.43D-05 DE=-3.13D-07 OVMax= 2.64D-05

 Cycle  13  Pass 1  IDiag  1:
 RMSU=  1.04D-07    CP:  1.00D+00  1.02D+00  3.79D-01  5.53D-01  8.30D-01
 E= -3449.83043510659     Delta-E=       -0.000000005744 Rises=F Damp=F
 DIIS: error= 1.47D-06 at cycle   6 NSaved=   6.
 NSaved= 6 IEnMin= 6 EnMin= -3449.83043510659     IErMin= 6 ErrMin= 1.47D-06
 ErrMax= 1.47D-06  0.00D+00 EMaxC= 1.00D-01 BMatC= 4.22D-10 BMatP= 5.76D-09
 IDIUse=1 WtCom= 1.00D+00 WtEn= 0.00D+00
 Coeff-Com: -0.676D-03 0.498D-01 0.228D-01 0.681D-01 0.238D+00 0.622D+00
 Coeff:     -0.676D-03 0.498D-01 0.228D-01 0.681D-01 0.238D+00 0.622D+00
 Gap=     0.134 Goal=   None    Shift=    0.000
 RMSDP=4.80D-08 MaxDP=4.43D-06 DE=-5.74D-09 OVMax= 9.37D-06

 Cycle  14  Pass 1  IDiag  1:
 RMSU=  4.28D-08    CP:  1.00D+00  1.02D+00  3.79D-01  5.50D-01  8.50D-01
                    CP:  8.21D-01
 E= -3449.83043510692     Delta-E=       -0.000000000335 Rises=F Damp=F
 DIIS: error= 7.18D-07 at cycle   7 NSaved=   7.
 NSaved= 7 IEnMin= 7 EnMin= -3449.83043510692     IErMin= 7 ErrMin= 7.18D-07
 ErrMax= 7.18D-07  0.00D+00 EMaxC= 1.00D-01 BMatC= 1.06D-10 BMatP= 4.22D-10
 IDIUse=1 WtCom= 1.00D+00 WtEn= 0.00D+00
 Coeff-Com: -0.566D-04 0.310D-02 0.811D-03 0.947D-02 0.891D-01 0.401D+00
 Coeff-Com:  0.496D+00
 Coeff:     -0.566D-04 0.310D-02 0.811D-03 0.947D-02 0.891D-01 0.401D+00
 Coeff:      0.496D+00
 Gap=     0.134 Goal=   None    Shift=    0.000
 RMSDP=2.21D-08 MaxDP=2.60D-06 DE=-3.35D-10 OVMax= 4.13D-06

 Cycle  15  Pass 1  IDiag  1:
 RMSU=  1.17D-08    CP:  1.00D+00  1.02D+00  3.79D-01  5.52D-01  8.59D-01
                    CP:  8.62D-01  5.85D-01
 E= -3449.83043510711     Delta-E=       -0.000000000189 Rises=F Damp=F
 DIIS: error= 2.33D-07 at cycle   8 NSaved=   8.
 NSaved= 8 IEnMin= 8 EnMin= -3449.83043510711     IErMin= 8 ErrMin= 2.33D-07
 ErrMax= 2.33D-07  0.00D+00 EMaxC= 1.00D-01 BMatC= 1.25D-11 BMatP= 1.06D-10
 IDIUse=1 WtCom= 1.00D+00 WtEn= 0.00D+00
 Coeff-Com:  0.239D-04-0.245D-02-0.156D-02 0.182D-03 0.380D-01 0.215D+00
 Coeff-Com:  0.324D+00 0.427D+00
 Coeff:      0.239D-04-0.245D-02-0.156D-02 0.182D-03 0.380D-01 0.215D+00
 Coeff:      0.324D+00 0.427D+00
 Gap=     0.134 Goal=   None    Shift=    0.000
 RMSDP=6.69D-09 MaxDP=7.06D-07 DE=-1.89D-10 OVMax= 1.37D-06

 SCF Done:  E(RB3LYP) =  -3449.83043511     A.U. after   15 cycles
            NFock= 15  Conv=0.67D-08     -V/T= 2.0091
 KE= 3.418880113926D+03 PE=-3.402175710373D+04 EE= 1.416581196702D+04
 Leave Link  502 at Tue Feb 11 15:09:05 2020, MaxMem=  6710886400 cpu:            7597.3 elap:             477.0
 (Enter /apps/gaussian/g16-a03/l601.exe)
 Copying SCF densities to generalized density rwf, IOpCl= 0 IROHF=0.
 Hyperfine terms turned off by default for NAtoms > 100.

 **********************************************************************

            Population analysis using the SCF density.

 **********************************************************************

 Orbital symmetries:
       Occupied  (A) (A) (A) (A) (A) (A) (A) (A) (A) (A) (A) (A)
                 (A) (A) (A) (A) (A) (A) (A) (A) (A) (A) (A) (A)
                 (A) (A) (A) (A) (A) (A) (A) (A) (A) (A) (A) (A)
                 (A) (A) (A) (A) (A) (A) (A) (A) (A) (A) (A) (A)
                 (A) (A) (A) (A) (A) (A) (A) (A) (A) (A) (A) (A)
                 (A) (A) (A) (A) (A) (A) (A) (A) (A) (A) (A) (A)
                 (A) (A) (A) (A) (A) (A) (A) (A) (A) (A) (A) (A)
                 (A) (A) (A) (A) (A) (A) (A) (A) (A) (A) (A) (A)
                 (A) (A) (A) (A) (A) (A) (A) (A) (A) (A) (A) (A)
                 (A) (A) (A) (A) (A) (A) (A) (A) (A) (A) (A) (A)
                 (A) (A) (A) (A) (A) (A) (A) (A) (A) (A) (A) (A)
                 (A) (A) (A) (A) (A) (A) (A) (A) (A) (A) (A) (A)
                 (A) (A) (A) (A) (A) (A) (A) (A) (A) (A) (A) (A)
                 (A) (A) (A) (A) (A) (A) (A) (A) (A) (A) (A) (A)
                 (A) (A) (A) (A) (A) (A) (A) (A) (A) (A) (A) (A)
                 (A) (A) (A) (A) (A) (A) (A) (A) (A) (A) (A) (A)
                 (A) (A) (A) (A) (A) (A) (A) (A) (A) (A) (A) (A)
                 (A) (A) (A) (A) (A) (A) (A) (A) (A) (A) (A) (A)
                 (A) (A) (A) (A) (A) (A) (A) (A) (A) (A) (A) (A)
                 (A) (A) (A) (A) (A) (A) (A) (A) (A) (A) (A) (A)
                 (A) (A) (A) (A) (A) (A) (A) (A) (A) (A) (A) (A)
                 (A) (A) (A) (A) (A) (A) (A) (A) (A) (A) (A) (A)
                 (A) (A) (A) (A) (A) (A) (A) (A) (A) (A) (A) (A)
                 (A) (A) (A) (A) (A) (A) (A) (A) (A) (A) (A) (A)
                 (A) (A) (A) (A) (A) (A) (A) (A) (A) (A) (A) (A)
                 (A) (A)
       Virtual   (A) (A) (A) (A) (A) (A) (A) (A) (A) (A) (A) (A)
                 (A) (A) (A) (A) (A) (A) (A) (A) (A) (A) (A) (A)
                 (A) (A) (A) (A) (A) (A) (A) (A) (A) (A) (A) (A)
                 (A) (A) (A) (A) (A) (A) (A) (A) (A) (A) (A) (A)
                 (A) (A) (A) (A) (A) (A) (A) (A) (A) (A) (A) (A)
                 (A) (A) (A) (A) (A) (A) (A) (A) (A) (A) (A) (A)
                 (A) (A) (A) (A) (A) (A) (A) (A) (A) (A) (A) (A)
                 (A) (A) (A) (A) (A) (A) (A) (A) (A) (A) (A) (A)
                 (A) (A) (A) (A) (A) (A) (A) (A) (A) (A) (A) (A)
                 (A) (A) (A) (A) (A) (A) (A) (A) (A) (A) (A) (A)
                 (A) (A) (A) (A) (A) (A) (A) (A) (A) (A) (A) (A)
                 (A) (A) (A) (A) (A) (A) (A) (A) (A) (A) (A) (A)
                 (A) (A) (A) (A) (A) (A) (A) (A) (A) (A) (A) (A)
                 (A) (A) (A) (A) (A) (A) (A) (A) (A) (A) (A) (A)
                 (A) (A) (A) (A) (A) (A) (A) (A) (A) (A) (A) (A)
                 (A) (A) (A) (A) (A) (A) (A) (A) (A) (A) (A) (A)
                 (A) (A) (A) (A) (A) (A) (A) (A) (A) (A) (A) (A)
                 (A) (A) (A) (A) (A) (A) (A) (A) (A) (A) (A) (A)
                 (A) (A) (A) (A) (A) (A) (A) (A) (A) (A) (A) (A)
                 (A) (A) (A) (A) (A) (A) (A) (A) (A) (A) (A) (A)
                 (A) (A) (A) (A) (A) (A) (A) (A) (A) (A) (A) (A)
                 (A) (A) (A) (A) (A) (A) (A) (A) (A) (A) (A) (A)
                 (A) (A) (A) (A) (A) (A) (A) (A) (A) (A) (A) (A)
                 (A) (A) (A) (A) (A) (A) (A) (A) (A) (A) (A) (A)
                 (A) (A) (A) (A) (A) (A) (A) (A) (A) (A) (A) (A)
                 (A) (A) (A) (A) (A) (A) (A) (A) (A) (A) (A) (A)
                 (A) (A) (A) (A) (A) (A) (A) (A) (A) (A) (A) (A)
                 (A) (A) (A) (A) (A) (A) (A) (A) (A) (A) (A) (A)
                 (A) (A) (A) (A) (A) (A) (A) (A) (A) (A) (A) (A)
                 (A) (A) (A) (A) (A) (A) (A) (A) (A) (A) (A) (A)
                 (A) (A) (A) (A) (A) (A) (A) (A) (A) (A) (A) (A)
                 (A) (A) (A) (A) (A) (A) (A) (A) (A) (A) (A) (A)
                 (A) (A) (A) (A) (A) (A) (A) (A) (A) (A) (A) (A)
                 (A) (A) (A) (A) (A) (A) (A) (A) (A) (A) (A) (A)
                 (A) (A) (A) (A) (A) (A) (A) (A) (A) (A) (A) (A)
                 (A) (A) (A) (A) (A) (A) (A) (A) (A) (A) (A) (A)
                 (A) (A) (A) (A) (A) (A) (A) (A) (A) (A) (A) (A)
                 (A) (A) (A) (A) (A) (A) (A) (A) (A) (A) (A) (A)
                 (A) (A) (A) (A) (A) (A) (A) (A) (A) (A) (A) (A)
                 (A) (A) (A) (A) (A) (A) (A) (A) (A) (A) (A) (A)
                 (A) (A) (A) (A) (A) (A) (A) (A) (A) (A) (A) (A)
                 (A) (A) (A) (A) (A) (A) (A) (A) (A) (A) (A) (A)
                 (A) (A) (A) (A) (A) (A) (A) (A) (A) (A) (A) (A)
                 (A) (A) (A) (A) (A) (A) (A) (A) (A) (A) (A) (A)
                 (A) (A) (A) (A) (A) (A) (A) (A) (A) (A) (A) (A)
                 (A) (A) (A) (A) (A) (A) (A) (A) (A) (A) (A) (A)
                 (A) (A) (A) (A) (A) (A) (A) (A) (A) (A) (A) (A)
                 (A) (A) (A) (A) (A) (A) (A) (A) (A) (A) (A) (A)
                 (A) (A) (A) (A) (A) (A) (A) (A) (A) (A) (A) (A)
                 (A) (A) (A) (A) (A) (A) (A) (A) (A) (A) (A) (A)
                 (A) (A) (A) (A) (A) (A) (A) (A) (A) (A)
 The electronic state is 1-A.
 Alpha  occ. eigenvalues --  -19.14937 -19.14525 -19.13847 -19.13695 -19.12812
 Alpha  occ. eigenvalues --  -19.12410 -19.12274 -19.11408 -19.11394 -19.10691
 Alpha  occ. eigenvalues --  -19.10499 -19.10481 -19.10434 -19.09766 -19.09334
 Alpha  occ. eigenvalues --  -19.08855 -10.23159 -10.23068 -10.22262 -10.22241
 Alpha  occ. eigenvalues --  -10.22196 -10.21628 -10.21145 -10.21118 -10.20985
 Alpha  occ. eigenvalues --  -10.20934 -10.20566 -10.20431 -10.20374 -10.20341
 Alpha  occ. eigenvalues --  -10.20265 -10.20045 -10.19954 -10.19925 -10.19890
 Alpha  occ. eigenvalues --  -10.19700 -10.19587 -10.19580 -10.19556 -10.19498
 Alpha  occ. eigenvalues --  -10.19280 -10.19191 -10.19158 -10.18845 -10.18760
 Alpha  occ. eigenvalues --  -10.18463 -10.18422 -10.18377 -10.17612 -10.17287
 Alpha  occ. eigenvalues --  -10.17264 -10.17214 -10.16998 -10.16578 -10.16521
 Alpha  occ. eigenvalues --  -10.16391 -10.16378 -10.15788 -10.15740 -10.15571
 Alpha  occ. eigenvalues --  -10.12080 -10.12052 -10.11876 -10.11670 -10.11657
 Alpha  occ. eigenvalues --  -10.11563 -10.11366 -10.11305 -10.11282 -10.10968
 Alpha  occ. eigenvalues --  -10.10660 -10.10080  -1.06419  -1.05950  -1.05266
 Alpha  occ. eigenvalues --   -1.04817  -1.04521  -1.04127  -1.04080  -1.03474
 Alpha  occ. eigenvalues --   -1.02686  -1.02522  -1.02003  -1.01638  -1.01210
 Alpha  occ. eigenvalues --   -1.00936  -1.00885  -0.99108  -0.88775  -0.87778
 Alpha  occ. eigenvalues --   -0.87187  -0.86107  -0.80508  -0.79867  -0.79647
 Alpha  occ. eigenvalues --   -0.78895  -0.78552  -0.78055  -0.77793  -0.75946
 Alpha  occ. eigenvalues --   -0.75650  -0.74792  -0.74635  -0.74019  -0.73847
 Alpha  occ. eigenvalues --   -0.72465  -0.72298  -0.71742  -0.71484  -0.71312
 Alpha  occ. eigenvalues --   -0.71220  -0.71017  -0.70803  -0.70437  -0.70283
 Alpha  occ. eigenvalues --   -0.70204  -0.69959  -0.69895  -0.69773  -0.69680
 Alpha  occ. eigenvalues --   -0.69634  -0.69351  -0.69268  -0.69164  -0.68551
 Alpha  occ. eigenvalues --   -0.68278  -0.67637  -0.66772  -0.65003  -0.64324
 Alpha  occ. eigenvalues --   -0.64185  -0.63753  -0.63359  -0.63145  -0.62898
 Alpha  occ. eigenvalues --   -0.61605  -0.61367  -0.60945  -0.60817  -0.59131
 Alpha  occ. eigenvalues --   -0.57737  -0.56975  -0.56409  -0.55578  -0.55071
 Alpha  occ. eigenvalues --   -0.54369  -0.54071  -0.53608  -0.53511  -0.52766
 Alpha  occ. eigenvalues --   -0.52544  -0.51938  -0.51821  -0.51772  -0.51371
 Alpha  occ. eigenvalues --   -0.51286  -0.51197  -0.51073  -0.50739  -0.50649
 Alpha  occ. eigenvalues --   -0.49593  -0.49437  -0.49052  -0.48947  -0.48647
 Alpha  occ. eigenvalues --   -0.48291  -0.48040  -0.47973  -0.47960  -0.47477
 Alpha  occ. eigenvalues --   -0.47275  -0.46880  -0.46654  -0.46454  -0.46370
 Alpha  occ. eigenvalues --   -0.46211  -0.45938  -0.45861  -0.45675  -0.45275
 Alpha  occ. eigenvalues --   -0.45058  -0.44767  -0.44523  -0.44414  -0.44177
 Alpha  occ. eigenvalues --   -0.44046  -0.43913  -0.43571  -0.43449  -0.43278
 Alpha  occ. eigenvalues --   -0.42986  -0.42858  -0.42432  -0.42202  -0.42149
 Alpha  occ. eigenvalues --   -0.42090  -0.41973  -0.41871  -0.41775  -0.41696
 Alpha  occ. eigenvalues --   -0.41650  -0.41526  -0.41509  -0.41363  -0.41348
 Alpha  occ. eigenvalues --   -0.41175  -0.41143  -0.41058  -0.40990  -0.40965
 Alpha  occ. eigenvalues --   -0.40847  -0.40821  -0.40752  -0.40664  -0.40561
 Alpha  occ. eigenvalues --   -0.40541  -0.40430  -0.40417  -0.40305  -0.40195
 Alpha  occ. eigenvalues --   -0.40130  -0.40090  -0.40023  -0.39900  -0.39864
 Alpha  occ. eigenvalues --   -0.39706  -0.39657  -0.39607  -0.39432  -0.39338
 Alpha  occ. eigenvalues --   -0.39070  -0.38892  -0.38667  -0.38489  -0.38384
 Alpha  occ. eigenvalues --   -0.38302  -0.38102  -0.38024  -0.37604  -0.37052
 Alpha  occ. eigenvalues --   -0.36790  -0.36457  -0.36258  -0.36183  -0.35915
 Alpha  occ. eigenvalues --   -0.35270  -0.34165  -0.33432  -0.33242  -0.32466
 Alpha  occ. eigenvalues --   -0.31826  -0.31671  -0.31570  -0.31238  -0.31141
 Alpha  occ. eigenvalues --   -0.30959  -0.30840  -0.30670  -0.30057  -0.30037
 Alpha  occ. eigenvalues --   -0.29975  -0.29186  -0.29133  -0.29127  -0.29014
 Alpha  occ. eigenvalues --   -0.28363  -0.28352  -0.28183  -0.28117  -0.27831
 Alpha  occ. eigenvalues --   -0.27544  -0.27422  -0.27168  -0.26883  -0.26880
 Alpha  occ. eigenvalues --   -0.26706  -0.26701  -0.26495  -0.26390  -0.26345
 Alpha  occ. eigenvalues --   -0.26060  -0.25584  -0.25411  -0.25136  -0.24990
 Alpha  occ. eigenvalues --   -0.24919  -0.24664  -0.24299  -0.23863  -0.23688
 Alpha  occ. eigenvalues --   -0.23179  -0.22762  -0.22417  -0.22226  -0.22217
 Alpha  occ. eigenvalues --   -0.21850  -0.21472  -0.21134  -0.20818  -0.20582
 Alpha  occ. eigenvalues --   -0.16374  -0.15459
 Alpha virt. eigenvalues --   -0.02109  -0.01322   0.02726   0.03532   0.05080
 Alpha virt. eigenvalues --    0.05743   0.06055   0.06234   0.06456   0.06585
 Alpha virt. eigenvalues --    0.06621   0.06940   0.06976   0.07091   0.07405
 Alpha virt. eigenvalues --    0.07711   0.07927   0.08307   0.08718   0.08752
 Alpha virt. eigenvalues --    0.09032   0.09232   0.09499   0.09631   0.10227
 Alpha virt. eigenvalues --    0.10284   0.10403   0.10607   0.10846   0.10961
 Alpha virt. eigenvalues --    0.11625   0.11710   0.12188   0.12586   0.12856
 Alpha virt. eigenvalues --    0.12921   0.13197   0.13373   0.13445   0.13607
 Alpha virt. eigenvalues --    0.13719   0.13806   0.14022   0.14035   0.14143
 Alpha virt. eigenvalues --    0.14331   0.14447   0.14541   0.14564   0.14695
 Alpha virt. eigenvalues --    0.14773   0.14906   0.15146   0.15320   0.15415
 Alpha virt. eigenvalues --    0.15544   0.15734   0.15801   0.15944   0.16092
 Alpha virt. eigenvalues --    0.16220   0.16271   0.16419   0.16517   0.16701
 Alpha virt. eigenvalues --    0.16757   0.16805   0.17157   0.17470   0.17559
 Alpha virt. eigenvalues --    0.17580   0.17726   0.18027   0.18232   0.18398
 Alpha virt. eigenvalues --    0.18478   0.18820   0.19135   0.19234   0.19436
 Alpha virt. eigenvalues --    0.19539   0.19833   0.19987   0.20073   0.20367
 Alpha virt. eigenvalues --    0.20485   0.20623   0.20781   0.20987   0.21135
 Alpha virt. eigenvalues --    0.21195   0.21246   0.21415   0.21555   0.21624
 Alpha virt. eigenvalues --    0.21699   0.21818   0.22046   0.22127   0.22335
 Alpha virt. eigenvalues --    0.22471   0.22751   0.22914   0.23082   0.23109
 Alpha virt. eigenvalues --    0.23180   0.23288   0.23418   0.23607   0.23704
 Alpha virt. eigenvalues --    0.23794   0.23902   0.23978   0.24055   0.24172
 Alpha virt. eigenvalues --    0.24259   0.24459   0.24518   0.24567   0.24817
 Alpha virt. eigenvalues --    0.24904   0.25079   0.25166   0.25237   0.25331
 Alpha virt. eigenvalues --    0.25418   0.25516   0.25632   0.25803   0.25894
 Alpha virt. eigenvalues --    0.25977   0.26159   0.26204   0.26235   0.26521
 Alpha virt. eigenvalues --    0.26556   0.26629   0.26796   0.26874   0.26931
 Alpha virt. eigenvalues --    0.26956   0.27160   0.27237   0.27300   0.27430
 Alpha virt. eigenvalues --    0.27497   0.27709   0.27845   0.27896   0.27973
 Alpha virt. eigenvalues --    0.27982   0.28329   0.28422   0.28512   0.28583
 Alpha virt. eigenvalues --    0.28647   0.28849   0.28950   0.29048   0.29119
 Alpha virt. eigenvalues --    0.29251   0.29271   0.29488   0.29577   0.29845
 Alpha virt. eigenvalues --    0.29933   0.29989   0.30036   0.30201   0.30233
 Alpha virt. eigenvalues --    0.30314   0.30500   0.30596   0.30706   0.30784
 Alpha virt. eigenvalues --    0.30878   0.31051   0.31297   0.31363   0.31431
 Alpha virt. eigenvalues --    0.31505   0.31511   0.31534   0.31703   0.31837
 Alpha virt. eigenvalues --    0.31971   0.32034   0.32226   0.32288   0.32359
 Alpha virt. eigenvalues --    0.32485   0.32615   0.32898   0.32938   0.33096
 Alpha virt. eigenvalues --    0.33155   0.33261   0.33401   0.33417   0.33680
 Alpha virt. eigenvalues --    0.33712   0.33908   0.34124   0.34298   0.34375
 Alpha virt. eigenvalues --    0.34563   0.34588   0.34834   0.34933   0.35205
 Alpha virt. eigenvalues --    0.35329   0.35434   0.35599   0.35653   0.35753
 Alpha virt. eigenvalues --    0.35794   0.35831   0.36052   0.36299   0.36354
 Alpha virt. eigenvalues --    0.36446   0.36594   0.36776   0.37088   0.37168
 Alpha virt. eigenvalues --    0.37270   0.37347   0.37639   0.37794   0.37904
 Alpha virt. eigenvalues --    0.38045   0.38134   0.38339   0.38433   0.38582
 Alpha virt. eigenvalues --    0.38594   0.38768   0.38846   0.38961   0.39084
 Alpha virt. eigenvalues --    0.39188   0.39325   0.39493   0.39507   0.39596
 Alpha virt. eigenvalues --    0.39641   0.39710   0.39848   0.40007   0.40086
 Alpha virt. eigenvalues --    0.40201   0.40251   0.40435   0.40504   0.40645
 Alpha virt. eigenvalues --    0.40734   0.40930   0.41003   0.41118   0.41233
 Alpha virt. eigenvalues --    0.41490   0.41652   0.41775   0.41983   0.42157
 Alpha virt. eigenvalues --    0.42304   0.42548   0.42556   0.42821   0.43161
 Alpha virt. eigenvalues --    0.43411   0.43503   0.43697   0.44169   0.44355
 Alpha virt. eigenvalues --    0.44623   0.44754   0.45012   0.45258   0.45488
 Alpha virt. eigenvalues --    0.45669   0.45707   0.45733   0.46289   0.46412
 Alpha virt. eigenvalues --    0.46681   0.47168   0.47432   0.47561   0.47713
 Alpha virt. eigenvalues --    0.47991   0.48032   0.48426   0.48909   0.49049
 Alpha virt. eigenvalues --    0.49258   0.49370   0.49403   0.49627   0.50053
 Alpha virt. eigenvalues --    0.50194   0.50309   0.50630   0.50769   0.51173
 Alpha virt. eigenvalues --    0.51467   0.51800   0.52177   0.52277   0.52584
 Alpha virt. eigenvalues --    0.52805   0.53201   0.53484   0.53732   0.54106
 Alpha virt. eigenvalues --    0.54175   0.54549   0.54627   0.54902   0.55435
 Alpha virt. eigenvalues --    0.55579   0.55631   0.55881   0.55940   0.56186
 Alpha virt. eigenvalues --    0.56216   0.56244   0.56814   0.57048   0.57239
 Alpha virt. eigenvalues --    0.57569   0.57662   0.57847   0.58118   0.58413
 Alpha virt. eigenvalues --    0.58862   0.59012   0.59074   0.59358   0.60064
 Alpha virt. eigenvalues --    0.60239   0.60697   0.60865   0.60984   0.61073
 Alpha virt. eigenvalues --    0.61397   0.61727   0.62487   0.62835   0.62993
 Alpha virt. eigenvalues --    0.63145   0.63437   0.63639   0.64449   0.64717
 Alpha virt. eigenvalues --    0.64835   0.64879   0.65546   0.66321   0.66364
 Alpha virt. eigenvalues --    0.66879   0.67917   0.68403   0.69288   0.69979
 Alpha virt. eigenvalues --    0.71683   0.71699   0.72284   0.73346   0.74211
 Alpha virt. eigenvalues --    0.74791   0.75178   0.78635   0.79613   0.80080
 Alpha virt. eigenvalues --    0.80278   0.81486   0.81559   0.82204   0.82575
[...]
       Atomic Center  115 is at  -4.269500  2.596477  0.653851
       Atomic Center  116 is at  -5.733398 -0.472950  2.460982
       Atomic Center  117 is at  -3.822000  1.088026  3.735152
       Atomic Center  118 is at  -2.080702  3.814843  2.887536
       Atomic Center  119 is at  -2.383449  5.569198  1.708858
       Atomic Center  120 is at  -2.596554  5.307830  0.777207
       Atomic Center  121 is at  -1.575791  6.114121  1.715791
       Atomic Center  122 is at  -3.136337  6.085908  2.070896
       Atomic Center  123 is at  -0.098296  3.054441  2.606727
       Atomic Center  124 is at   0.003966  2.219596  3.101880
       Atomic Center  125 is at   0.554033  3.713230  2.931633
       Atomic Center  126 is at   0.053144  2.889644  1.653151
       Atomic Center  127 is at  -2.456913  4.173143  4.965272
       Atomic Center  128 is at  -3.352962  3.857381  5.191304
       Atomic Center  129 is at  -2.379808  5.130077  5.148663
       Atomic Center  130 is at  -1.795309  3.689683  5.498701
       Atomic Center  131 is at  -6.089857  2.989474 -3.042695
       Atomic Center  132 is at  -5.910400  2.388890 -3.817095
       Atomic Center  133 is at  -7.065962  3.167972 -3.015154
       Atomic Center  134 is at  -5.323980  4.261808 -3.185517
       Atomic Center  135 is at  -5.555733  4.689946 -4.040144
       Atomic Center  136 is at  -4.360028  4.063329 -3.183850
       Atomic Center  137 is at  -5.635701  5.116313 -2.114420
       Atomic Center  138 is at  -4.943123  6.351934 -2.155362
       Atomic Center  139 is at  -4.007853  6.190090 -2.441853
       Atomic Center  140 is at  -5.368181  6.949343 -2.810288
       Atomic Center  141 is at  -4.962917  6.974119 -0.793050
       Atomic Center  142 is at  -4.300702  7.717243 -0.762406
       Atomic Center  143 is at  -4.709193  6.307127 -0.109789
       Atomic Center  144 is at  -6.259761  7.484231 -0.528319
       Atomic Center  145 is at  -6.516446  7.664547  0.864555
       Atomic Center  146 is at  -7.500406  7.796088  0.983383
       Atomic Center  147 is at  -6.275364  6.830114  1.339002
       Atomic Center  148 is at  -5.812607  8.803474  1.515367
       Atomic Center  149 is at  -6.242195  9.013749  2.377480
       Atomic Center  150 is at  -5.882171  9.613515  0.934683
       Atomic Center  151 is at  -4.446420  8.485950  1.719359
       Atomic Center  152 is at  -3.772248  9.466112  2.482035
       Atomic Center  153 is at  -3.875794 10.338129  2.056283
       Atomic Center  154 is at  -4.158248  9.491413  3.386393
       Atomic Center  155 is at  -2.825294  9.234450  2.542946
       Atomic Center  156 is at  -5.319660 -1.112527  3.681499
       Atomic Center  157 is at  -5.499117 -0.511943  4.455898
       Atomic Center  158 is at  -4.343556 -1.291025  3.653958
       Atomic Center  159 is at  -6.085538 -2.384861  3.824321
       Atomic Center  160 is at  -5.853784 -2.812999  4.678948
       Atomic Center  161 is at  -7.049490 -2.186382  3.822654
       Atomic Center  162 is at  -5.773816 -3.239366  2.753223
       Atomic Center  163 is at  -6.466395 -4.474987  2.794166
       Atomic Center  164 is at  -7.401664 -4.313144  3.080657
       Atomic Center  165 is at  -6.041337 -5.072397  3.449091
       Atomic Center  166 is at  -6.446601 -5.097173  1.431854
       Atomic Center  167 is at  -7.108815 -5.840296  1.401209
       Atomic Center  168 is at  -6.700324 -4.430181  0.748592
       Atomic Center  169 is at  -5.149757 -5.607284  1.167123
       Atomic Center  170 is at  -4.893071 -5.787601 -0.225752
       Atomic Center  171 is at  -3.909111 -5.919141 -0.344580
       Atomic Center  172 is at  -5.134154 -4.953167 -0.700198
       Atomic Center  173 is at  -5.596911 -6.926527 -0.876563
       Atomic Center  174 is at  -5.167323 -7.136802 -1.738676
       Atomic Center  175 is at  -5.527347 -7.736569 -0.295879
       Atomic Center  176 is at  -6.963097 -6.609003 -1.080555
       Atomic Center  177 is at  -7.637270 -7.589165 -1.843231
       Atomic Center  178 is at  -7.533723 -8.461183 -1.417480
       Atomic Center  179 is at  -7.251269 -7.614466 -2.747589
       Atomic Center  180 is at  -8.584224 -7.357503 -1.904143
    6049 points will be used for fitting atomic charges
 Fitting point charges to electrostatic potential
 Charges from ESP fit, RMS=   0.00173 RRMS=   0.08980:
 ESP charges:
               1
     1  C   -0.182560
     2  C    0.618373
     3  C   -0.494961
     4  C   -0.308831
     5  S   -0.005621
     6  O   -0.446107
     7  H    0.229682
     8  Sn   1.149959
     9  C   -0.836549
    10  H    0.190949
    11  H    0.192661
    12  H    0.162244
    13  C   -0.959757
    14  H    0.221070
    15  H    0.217793
    16  H    0.223686
    17  C   -0.794038
    18  H    0.176837
    19  H    0.182663
    20  H    0.174028
    21  C   -0.088661
    22  C    0.558426
    23  C   -0.463819
    24  C   -0.318850
    25  S   -0.020409
    26  O   -0.437547
    27  H    0.219802
    28  Sn   1.149295
    29  C   -0.776847
    30  H    0.183287
    31  H    0.168645
    32  H    0.129412
    33  C   -0.952528
    34  H    0.217741
    35  H    0.215326
    36  H    0.223261
    37  C   -0.825807
    38  H    0.184853
    39  H    0.187901
    40  H    0.185045
    41  C   -0.076800
    42  H    0.100632
    43  H    0.128381
    44  C    0.212993
    45  H    0.026306
    46  H    0.066592
    47  O   -0.430379
    48  C   -0.013053
    49  H    0.053196
    50  H    0.117084
    51  C    0.283386
    52  H   -0.004462
    53  H    0.064477
    54  O   -0.592819
    55  C    0.187741
    56  H    0.066660
    57  H    0.051594
    58  C   -0.051324
    59  H    0.065779
    60  H    0.124956
    61  O   -0.219667
    62  C   -0.381263
    63  H    0.158495
    64  H    0.161985
    65  H    0.172027
    66  C   -0.053632
    67  H    0.103381
    68  H    0.124752
    69  C    0.133060
    70  H    0.048668
    71  H    0.088606
    72  O   -0.415805
    73  C   -0.015606
    74  H    0.048434
    75  H    0.106364
    76  C    0.323306
    77  H   -0.018176
    78  H    0.074578
    79  O   -0.582001
    80  C    0.009320
    81  H    0.096001
    82  H    0.083289
    83  C    0.242440
    84  H   -0.004490
    85  H    0.068389
    86  O   -0.364184
    87  C   -0.295302
    88  H    0.172433
    89  H    0.149886
    90  H    0.148119
    91  C   -0.206801
    92  C    0.657578
    93  C   -0.519952
    94  C   -0.292240
    95  S   -0.031207
    96  O   -0.484540
    97  H    0.233024
    98  Sn   1.170418
    99  C   -0.855634
   100  H    0.203117
   101  H    0.189772
   102  H    0.151102
   103  C   -0.916988
   104  H    0.209921
   105  H    0.207124
   106  H    0.213723
   107  C   -0.868937
   108  H    0.200768
   109  H    0.201195
   110  H    0.193115
   111  C   -0.065984
   112  C    0.430963
   113  C   -0.340953
   114  C   -0.408004
   115  S    0.034978
   116  O   -0.379476
   117  H    0.189783
   118  Sn   1.179381
   119  C   -0.771481
   120  H    0.179158
   121  H    0.169244
   122  H    0.126280
   123  C   -1.010731
   124  H    0.232425
   125  H    0.234959
   126  H    0.251236
   127  C   -0.857819
   128  H    0.192724
   129  H    0.196173
   130  H    0.194855
   131  C    0.013213
   132  H    0.084064
   133  H    0.105631
   134  C    0.152381
   135  H    0.036467
   136  H    0.081803
   137  O   -0.439040
   138  C    0.077534
   139  H    0.039139
   140  H    0.101927
   141  C    0.151946
   142  H    0.024100
   143  H    0.099377
   144  O   -0.547228
   145  C    0.099665
   146  H    0.093949
   147  H    0.070901
   148  C   -0.056650
   149  H    0.073759
   150  H    0.131049
   151  O   -0.196780
   152  C   -0.376263
   153  H    0.151109
   154  H    0.159604
   155  H    0.171242
   156  C    0.009093
   157  H    0.088367
   158  H    0.105349
   159  C    0.040024
   160  H    0.077303
   161  H    0.104368
   162  O   -0.393964
   163  C   -0.056969
   164  H    0.072162
   165  H    0.130124
   166  C    0.307730
   167  H   -0.010811
   168  H    0.049350
   169  O   -0.578202
   170  C    0.106828
   171  H    0.100165
   172  H    0.046883
   173  C   -0.018496
   174  H    0.063463
   175  H    0.113212
   176  O   -0.172391
   177  C   -0.443505
   178  H    0.167837
   179  H    0.176207
   180  H    0.186308
 Sum of ESP charges =  -0.00000
 ESP charges with hydrogens summed into heavy atoms:
               1
     1  C   -0.182560
     2  C    0.618373
     3  C   -0.265279
     4  C   -0.308831
     5  S   -0.005621
     6  O   -0.446107
     8  Sn   1.149959
     9  C   -0.290694
    13  C   -0.297208
    17  C   -0.260509
    21  C   -0.088661
    22  C    0.558426
    23  C   -0.244017
    24  C   -0.318850
    25  S   -0.020409
    26  O   -0.437547
    28  Sn   1.149295
    29  C   -0.295504
    33  C   -0.296200
    37  C   -0.268008
    41  C    0.152212
    44  C    0.305891
    47  O   -0.430379
    48  C    0.157226
    51  C    0.343401
    54  O   -0.592819
    55  C    0.305994
    58  C    0.139412
    61  O   -0.219667
    62  C    0.111244
    66  C    0.174501
    69  C    0.270334
    72  O   -0.415805
    73  C    0.139192
    76  C    0.379708
    79  O   -0.582001
    80  C    0.188611
    83  C    0.306339
    86  O   -0.364184
    87  C    0.175136
    91  C   -0.206801
    92  C    0.657578
    93  C   -0.286929
    94  C   -0.292240
    95  S   -0.031207
    96  O   -0.484540
    98  Sn   1.170418
    99  C   -0.311643
   103  C   -0.286220
   107  C   -0.273859
   111  C   -0.065984
   112  C    0.430963
   113  C   -0.151170
   114  C   -0.408004
   115  S    0.034978
   116  O   -0.379476
   118  Sn   1.179381
   119  C   -0.296799
   123  C   -0.292110
   127  C   -0.274066
   131  C    0.202908
   134  C    0.270651
   137  O   -0.439040
   138  C    0.218600
   141  C    0.275423
   144  O   -0.547228
   145  C    0.264516
   148  C    0.148157
   151  O   -0.196780
   152  C    0.105692
   156  C    0.202809
   159  C    0.221695
   162  O   -0.393964
   163  C    0.145317
   166  C    0.346268
   169  O   -0.578202
   170  C    0.253876
   173  C    0.158179
   176  O   -0.172391
   177  C    0.086848
 Charge=  -0.00000 Dipole=    -0.9328     0.2566     0.1180 Tot=     0.9747
 -----------------------------------------------------------------

              Electrostatic Properties (Atomic Units)

 -----------------------------------------------------------------
    Center     Electric         -------- Electric Field --------
               Potential          X             Y             Z
 -----------------------------------------------------------------
    1 Atom    -14.764957
    2 Atom    -14.727386
    3 Atom    -14.801301
    4 Atom    -14.794093
    5 Atom     -3.674902
    6 Atom    -22.351764
    7 Atom     -1.113402
    8 Atom     -1.649631
    9 Atom    -14.856905
   10 Atom     -1.143259
   11 Atom     -1.143060
   12 Atom     -1.150007
   13 Atom    -14.844420
   14 Atom     -1.134645
   15 Atom     -1.133064
   16 Atom     -1.135435
   17 Atom    -14.844294
   18 Atom     -1.133127
   19 Atom     -1.132287
   20 Atom     -1.132147
   21 Atom    -14.764700
   22 Atom    -14.728287
   23 Atom    -14.798844
   24 Atom    -14.791791
   25 Atom     -3.672408
   26 Atom    -22.353445
   27 Atom     -1.111728
   28 Atom     -1.645662
   29 Atom    -14.851169
   30 Atom     -1.137302
   31 Atom     -1.136278
   32 Atom     -1.142846
   33 Atom    -14.840394
   34 Atom     -1.131805
   35 Atom     -1.129939
   36 Atom     -1.131999
   37 Atom    -14.841020
   38 Atom     -1.128766
   39 Atom     -1.126976
   40 Atom     -1.127811
   41 Atom    -14.741730
   42 Atom     -1.109504
   43 Atom     -1.117390
   44 Atom    -14.749050
   45 Atom     -1.117957
   46 Atom     -1.124748
   47 Atom    -22.386207
   48 Atom    -14.761570
   49 Atom     -1.121846
   50 Atom     -1.134691
   51 Atom    -14.769198
   52 Atom     -1.144623
   53 Atom     -1.143644
   54 Atom    -22.384477
   55 Atom    -14.757118
   56 Atom     -1.124490
   57 Atom     -1.132870
   58 Atom    -14.751431
   59 Atom     -1.113380
   60 Atom     -1.120814
   61 Atom    -22.366815
   62 Atom    -14.761676
   63 Atom     -1.111284
   64 Atom     -1.113942
   65 Atom     -1.111431
   66 Atom    -14.743603
   67 Atom     -1.110847
   68 Atom     -1.120348
   69 Atom    -14.753435
   70 Atom     -1.120866
   71 Atom     -1.128780
   72 Atom    -22.392518
   73 Atom    -14.768762
   74 Atom     -1.131852
   75 Atom     -1.144511
   76 Atom    -14.783380
   77 Atom     -1.156308
   78 Atom     -1.157148
   79 Atom    -22.400839
   80 Atom    -14.776621
   81 Atom     -1.143394
   82 Atom     -1.151349
   83 Atom    -14.782105
   84 Atom     -1.145055
   85 Atom     -1.152407
   86 Atom    -22.395458
   87 Atom    -14.799205
   88 Atom     -1.154037
   89 Atom     -1.154478
   90 Atom     -1.148551
   91 Atom    -14.756824
   92 Atom    -14.719447
   93 Atom    -14.793210
   94 Atom    -14.785273
   95 Atom     -3.664327
   96 Atom    -22.344976
   97 Atom     -1.106295
   98 Atom     -1.639940
   99 Atom    -14.843669
  100 Atom     -1.131427
  101 Atom     -1.130173
  102 Atom     -1.136598
  103 Atom    -14.836986
  104 Atom     -1.126302
  105 Atom     -1.124771
  106 Atom     -1.127072
  107 Atom    -14.836885
  108 Atom     -1.125034
  109 Atom     -1.123452
  110 Atom     -1.124588
  111 Atom    -14.755809
  112 Atom    -14.718572
  113 Atom    -14.791956
  114 Atom    -14.785134
  115 Atom     -3.664046
  116 Atom    -22.340824
  117 Atom     -1.104682
  118 Atom     -1.642625
  119 Atom    -14.847652
  120 Atom     -1.135737
  121 Atom     -1.134375
  122 Atom     -1.140669
  123 Atom    -14.841934
  124 Atom     -1.131063
  125 Atom     -1.129832
  126 Atom     -1.132558
  127 Atom    -14.838925
  128 Atom     -1.126815
  129 Atom     -1.125491
  130 Atom     -1.126650
  131 Atom    -14.736235
  132 Atom     -1.107265
  133 Atom     -1.114457
  134 Atom    -14.750009
  135 Atom     -1.115394
  136 Atom     -1.124447
  137 Atom    -22.385488
  138 Atom    -14.760602
  139 Atom     -1.123290
  140 Atom     -1.133107
  141 Atom    -14.768456
  142 Atom     -1.143850
  143 Atom     -1.142026
  144 Atom    -22.382866
  145 Atom    -14.753391
  146 Atom     -1.122467
  147 Atom     -1.129861
  148 Atom    -14.748117
  149 Atom     -1.110132
  150 Atom     -1.120368
  151 Atom    -22.365406
  152 Atom    -14.760816
  153 Atom     -1.111518
  154 Atom     -1.113259
  155 Atom     -1.110019
  156 Atom    -14.730153
  157 Atom     -1.101390
  158 Atom     -1.107642
  159 Atom    -14.742251
  160 Atom     -1.108058
  161 Atom     -1.116217
  162 Atom    -22.376220
  163 Atom    -14.752981
  164 Atom     -1.115466
  165 Atom     -1.125751
  166 Atom    -14.761519
  167 Atom     -1.137039
  168 Atom     -1.135039
  169 Atom    -22.375665
  170 Atom    -14.748058
  171 Atom     -1.116961
  172 Atom     -1.124073
  173 Atom    -14.743942
  174 Atom     -1.106320
  175 Atom     -1.116249
  176 Atom    -22.361357
  177 Atom    -14.757366
  178 Atom     -1.108126
  179 Atom     -1.110014
  180 Atom     -1.106519
 -----------------------------------------------------------------
 Leave Link  602 at Tue Feb 11 15:09:08 2020, MaxMem=  6710886400 cpu:              21.8 elap:               1.4
 (Enter /apps/gaussian/g16-a03/l9999.exe)
 1\1\GINC-CX1-141-15-3\SP\RB3LYP\LANL2DZ\C56H100O16S4Sn4\NS5018\11-Feb-
 2020\0\\#p pop=MKUFF b3lyp/lanl2dz\\CSD ENTRY IM1704\\0,1\C,0,1.84,6.4
 9,9.1\C,0,0.64,6.58,9.8\C,0,0.,5.34,10.02\C,0,0.68,4.28,9.5\S,0,2.11,4
 .81,8.7\O,0,0.21,7.81,10.2\H,0,-0.83,5.26,10.48\Sn,0,0.17,2.2,9.53\C,0
 ,1.25,1.34,7.9\H,0,2.14,1.74,7.85\H,0,1.33,0.37,8.04\H,0,0.76,1.5,7.07
 \C,0,0.75,1.29,11.39\H,0,0.3,1.75,12.13\H,0,0.5,0.34,11.38\H,0,1.72,1.
 37,11.5\C,0,-1.94,2.06,9.27\H,0,-2.29,2.91,8.92\H,0,-2.14,1.34,8.63\H,
 0,-2.36,1.86,10.13\C,0,2.75,7.54,8.75\C,0,3.94,7.45,8.05\C,0,4.59,8.68
 ,7.83\C,0,3.91,9.75,8.36\S,0,2.48,9.21,9.15\O,0,4.38,6.21,7.66\H,0,5.4
 2,8.77,7.37\Sn,0,4.42,11.82,8.32\C,0,3.34,12.69,9.95\H,0,2.45,12.29,10
 .\H,0,3.26,13.65,9.81\H,0,3.82,12.52,10.79\C,0,3.83,12.73,6.47\H,0,4.2
 9,12.28,5.72\H,0,4.09,13.68,6.47\H,0,2.86,12.65,6.36\C,0,6.53,11.97,8.
 58\H,0,6.87,11.12,8.93\H,0,6.73,12.68,9.22\H,0,6.95,12.17,7.72\C,0,-0.
 92,7.84,11.09\H,0,-1.72,7.51,10.62\H,0,-0.75,7.26,11.87\C,0,-1.12,9.25
 ,11.52\H,0,-1.93,9.31,12.1\H,0,-1.27,9.83,10.73\O,0,0.01,9.69,12.24\C,
 0,-0.1,11.03,12.68\H,0,-0.51,11.58,11.98\H,0,-0.67,11.07,13.49\C,0,1.2
 7,11.55,13.\H,0,1.23,12.54,13.1\H,0,1.89,11.34,12.26\O,0,1.74,10.97,14
 .21\C,0,3.15,11.02,14.35\H,0,3.42,10.41,15.08\H,0,3.56,10.68,13.52\C,0
 ,3.73,12.37,14.64\H,0,4.66,12.26,14.97\H,0,3.2,12.81,15.34\O,0,3.73,13
 .16,13.47\C,0,4.42,14.38,13.65\H,0,4.04,14.86,14.4\H,0,5.37,14.19,13.8
 2\H,0,4.34,14.92,12.83\C,0,5.51,6.19,6.77\H,0,6.31,6.52,7.23\H,0,5.34,
 6.77,5.98\C,0,5.71,4.78,6.33\H,0,6.51,4.72,5.75\H,0,5.85,4.2,7.12\O,0,
 4.58,4.33,5.61\C,0,4.68,3.,5.17\H,0,5.1,2.44,5.87\H,0,5.26,2.95,4.36\C
 ,0,3.32,2.47,4.85\H,0,3.35,1.49,4.76\H,0,2.7,2.69,5.59\O,0,2.85,3.06,3
 .65\C,0,1.43,3.01,3.5\H,0,1.17,3.62,2.77\H,0,1.02,3.35,4.34\C,0,0.86,1
 .66,3.21\H,0,-0.07,1.76,2.88\H,0,1.39,1.22,2.51\O,0,0.86,0.86,4.38\C,0
 ,0.17,-0.35,4.21\H,0,0.55,-0.84,3.45\H,0,-0.78,-0.17,4.03\H,0,0.25,-0.
 9,5.02\C,0,0.46,-0.53,-0.17\C,0,1.65,-0.43,-0.88\C,0,2.29,-1.67,-1.09\
 C,0,1.61,-2.73,-0.57\S,0,0.18,-2.2,0.22\O,0,2.08,0.8,-1.27\H,0,3.12,-1
 .76,-1.55\Sn,0,2.12,-4.81,-0.61\C,0,1.05,-5.68,1.02\H,0,0.15,-5.27,1.0
 8\H,0,0.96,-6.64,0.88\H,0,1.53,-5.51,1.86\C,0,1.54,-5.72,-2.46\H,0,1.9
 9,-5.27,-3.2\H,0,1.79,-6.67,-2.45\H,0,0.57,-5.64,-2.57\C,0,4.24,-4.95,
 -0.34\H,0,4.58,-4.1,0.\H,0,4.44,-5.67,0.29\H,0,4.66,-5.15,-1.2\C,0,-0.
 46,0.53,0.17\C,0,-1.65,0.43,0.88\C,0,-2.29,1.67,1.09\C,0,-1.61,2.73,0.
 57\S,0,-0.18,2.2,-0.22\O,0,-2.08,-0.8,1.27\H,0,-3.12,1.76,1.55\Sn,0,-2
 .12,4.81,0.61\C,0,-1.05,5.68,-1.02\H,0,-0.15,5.27,-1.08\H,0,-0.96,6.64
 ,-0.88\H,0,-1.53,5.51,-1.86\C,0,-1.54,5.72,2.46\H,0,-1.99,5.27,3.2\H,0
 ,-1.79,6.67,2.45\H,0,-0.57,5.64,2.57\C,0,-4.24,4.95,0.34\H,0,-4.58,4.1
 ,0.\H,0,-4.44,5.67,-0.29\H,0,-4.66,5.15,1.2\C,0,3.21,0.83,-2.16\H,0,4.
 02,0.49,-1.69\H,0,3.04,0.24,-2.94\C,0,3.42,2.24,-2.6\H,0,4.22,2.29,-3.
 17\H,0,3.56,2.81,-1.81\O,0,2.29,2.68,-3.31\C,0,2.39,4.02,-3.76\H,0,2.8
 1,4.57,-3.05\H,0,2.96,4.06,-4.56\C,0,1.02,4.54,-4.07\H,0,1.06,5.53,-4.
 17\H,0,0.4,4.33,-3.33\O,0,0.56,3.96,-5.28\C,0,-0.86,4.01,-5.42\H,0,-1.
 12,3.39,-6.16\H,0,-1.27,3.66,-4.59\C,0,-1.44,5.35,-5.71\H,0,-2.36,5.25
 ,-6.05\H,0,-0.9,5.8,-6.42\O,0,-1.44,6.15,-4.54\C,0,-2.13,7.37,-4.72\H,
 0,-1.75,7.85,-5.48\H,0,-3.08,7.18,-4.89\H,0,-2.05,7.91,-3.91\C,0,-3.21
 ,-0.83,2.16\H,0,-4.02,-0.49,1.69\H,0,-3.04,-0.24,2.94\C,0,-3.42,-2.24,
 2.6\H,0,-4.22,-2.29,3.17\H,0,-3.56,-2.81,1.81\O,0,-2.29,-2.68,3.31\C,0
 ,-2.39,-4.02,3.76\H,0,-2.81,-4.57,3.05\H,0,-2.96,-4.06,4.56\C,0,-1.02,
 -4.54,4.07\H,0,-1.06,-5.53,4.17\H,0,-0.4,-4.33,3.33\O,0,-0.56,-3.96,5.
 28\C,0,0.86,-4.01,5.42\H,0,1.12,-3.39,6.16\H,0,1.27,-3.66,4.59\C,0,1.4
 4,-5.35,5.71\H,0,2.36,-5.25,6.05\H,0,0.9,-5.8,6.42\O,0,1.44,-6.15,4.54
 \C,0,2.13,-7.37,4.72\H,0,1.75,-7.85,5.48\H,0,3.08,-7.18,4.89\H,0,2.05,
 -7.91,3.91\\Version=ES64L-G16RevA.03\State=1-A\HF=-3449.8304351\RMSD=6
 .694e-09\Dipole=-0.0984145,-0.1944924,-0.3211178\Quadrupole=2.0850289,
 40.0395782,-42.1246071,-0.9460976,14.3006858,-0.2043218\PG=C01 [X(C56H
 100O16S4Sn4)]\\@


 IT IS THE GODS' CUSTOM TO BRING LOW ALL THINGS OF SURPASSING GREATNESS.
     -- HERODOTUS
 IT IS THE LOFTY PINE THAT BY THE STORM IS OFTENER TOSSED;
 TOWERS FALL WITH HEAVIER CRASH WHICH HIGHER SOAR.
     -- HORACE
 THE BIGGER THEY COME, THE HARDER THEY FALL.
     -- BOB FITZSIMONS HEAVYWEIGHT CHAMPION, 1897-1899
 Job cpu time:       0 days  2 hours 16 minutes 57.3 seconds.
 Elapsed time:       0 days  0 hours  8 minutes 36.0 seconds.
 File lengths (MBytes):  RWF=    453 Int=      0 D2E=      0 Chk=     49 Scr=      1
 Normal termination of Gaussian 16 at Tue Feb 11 15:09:09 2020.
