 Entering Gaussian System, Link 0=g16
 Input=O3G_1m_0sc_Sn_pop.gjf
 Output=O3G_1m_0sc_Sn_pop.log
 Initial command:
 /apps/gaussian/g16-a03/l1.exe "/tmp/pbs.969831.pbs/Gau-17746.inp" -scrdir="/tmp/pbs.969831.pbs/"
 Entering Link 1 = /apps/gaussian/g16-a03/l1.exe PID=     17747.
  
 Copyright (c) 1988,1990,1992,1993,1995,1998,2003,2009,2016,
            Gaussian, Inc.  All Rights Reserved.
  
 This is part of the Gaussian(R) 16 program.  It is based on
 the Gaussian(R) 09 system (copyright 2009, Gaussian, Inc.),
 the Gaussian(R) 03 system (copyright 2003, Gaussian, Inc.),
 the Gaussian(R) 98 system (copyright 1998, Gaussian, Inc.),
 the Gaussian(R) 94 system (copyright 1995, Gaussian, Inc.),
 the Gaussian 92(TM) system (copyright 1992, Gaussian, Inc.),
 the Gaussian 90(TM) system (copyright 1990, Gaussian, Inc.),
 the Gaussian 88(TM) system (copyright 1988, Gaussian, Inc.),
 the Gaussian 86(TM) system (copyright 1986, Carnegie Mellon
 University), and the Gaussian 82(TM) system (copyright 1983,
 Carnegie Mellon University). Gaussian is a federally registered
 trademark of Gaussian, Inc.
  
 This software contains proprietary and confidential information,
 including trade secrets, belonging to Gaussian, Inc.
  
 This software is provided under written license and may be
 used, copied, transmitted, or stored only in accord with that
 written license.
  
 The following legend is applicable only to US Government
 contracts under FAR:
  
                    RESTRICTED RIGHTS LEGEND
  
 Use, reproduction and disclosure by the US Government is
 subject to restrictions as set forth in subparagraphs (a)
 and (c) of the Commercial Computer Software - Restricted
 Rights clause in FAR 52.227-19.
  
 Gaussian, Inc.
 340 Quinnipiac St., Bldg. 40, Wallingford CT 06492
  
  
 ---------------------------------------------------------------
 Warning -- This program may not be used in any manner that
 competes with the business of Gaussian, Inc. or will provide
 assistance to any competitor of Gaussian, Inc.  The licensee
 of this program is prohibited from giving any competitor of
 Gaussian, Inc. access to this program.  By using this program,
 the user acknowledges that Gaussian, Inc. is engaged in the
 business of creating and licensing software in the field of
 computational chemistry and represents and warrants to the
 licensee that it is not a competitor of Gaussian, Inc. and that
 it will not use this program in any manner prohibited above.
 ---------------------------------------------------------------
  

 Cite this work as:
 Gaussian 16, Revision A.03,
 M. J. Frisch, G. W. Trucks, H. B. Schlegel, G. E. Scuseria, 
 M. A. Robb, J. R. Cheeseman, G. Scalmani, V. Barone, 
 G. A. Petersson, H. Nakatsuji, X. Li, M. Caricato, A. V. Marenich, 
 J. Bloino, B. G. Janesko, R. Gomperts, B. Mennucci, H. P. Hratchian, 
 J. V. Ortiz, A. F. Izmaylov, J. L. Sonnenberg, D. Williams-Young, 
 F. Ding, F. Lipparini, F. Egidi, J. Goings, B. Peng, A. Petrone, 
 T. Henderson, D. Ranasinghe, V. G. Zakrzewski, J. Gao, N. Rega, 
 G. Zheng, W. Liang, M. Hada, M. Ehara, K. Toyota, R. Fukuda, 
 J. Hasegawa, M. Ishida, T. Nakajima, Y. Honda, O. Kitao, H. Nakai, 
 T. Vreven, K. Throssell, J. A. Montgomery, Jr., J. E. Peralta, 
 F. Ogliaro, M. J. Bearpark, J. J. Heyd, E. N. Brothers, K. N. Kudin, 
 V. N. Staroverov, T. A. Keith, R. Kobayashi, J. Normand, 
 K. Raghavachari, A. P. Rendell, J. C. Burant, S. S. Iyengar, 
 J. Tomasi, M. Cossi, J. M. Millam, M. Klene, C. Adamo, R. Cammi, 
 J. W. Ochterski, R. L. Martin, K. Morokuma, O. Farkas, 
 J. B. Foresman, and D. J. Fox, Gaussian, Inc., Wallingford CT, 2016.
 
 ******************************************
 Gaussian 16:  ES64L-G16RevA.03 25-Dec-2016
                17-Jan-2020 
 ******************************************
 %mem=50GB
 %nprocshared=4
 Will use up to    4 processors via shared memory.
 --------------------------
 #p pop=MKUFF b3lyp/lanl2dz
 --------------------------
 1/38=1,172=1/1;
 2/12=2,17=6,18=5,40=1/2;
 3/5=6,6=3,11=2,25=1,30=1,74=-5/1,2,3;
 4//1;
 5/5=2,38=5/2;
 6/7=2,8=2,9=2,10=2,15=8,20=4,28=1/1,2;
 99/5=1,9=1/99;
 Leave Link    1 at Fri Jan 17 12:57:02 2020, MaxMem=  6710886400 cpu:               0.1 elap:               0.0
 (Enter /apps/gaussian/g16-a03/l101.exe)
 ---------------------
 O3G_1m_0sc_Sn_pop.gjf
 ---------------------
 Symbolic Z-matrix:
 Charge =  0 Multiplicity = 1
 C                     0.152     0.706    -0.001 
 C                     1.398     1.313    -0.001 
 C                     1.356     2.736    -0.001 
 C                     0.078     3.212    -0.001 
 S                    -1.096     1.945    -0.001 
 O                     2.523     0.542     0. 
 H                     2.229     3.372     0. 
 C                    -0.152    -0.706    -0.001 
 C                    -1.398    -1.313    -0.001 
 C                    -1.357    -2.736    -0.001 
 C                    -0.078    -3.212    -0.001 
 S                     1.096    -1.946     0. 
 O                    -2.523    -0.542    -0.001 
 H                    -2.229    -3.373    -0.001 
 C                     3.788     1.197     0. 
 H                     3.899     1.826     0.89 
 H                     3.899     1.826    -0.891 
 C                     4.85      0.113     0. 
 H                     4.735    -0.523     0.889 
 H                     4.735    -0.523    -0.889 
 O                     6.104     0.768     0. 
 C                     7.206    -0.122     0. 
 H                     7.189    -0.768     0.889 
 H                     7.189    -0.768    -0.889 
 C                     8.472     0.716     0. 
 H                     8.487     1.363     0.889 
 H                     8.488     1.363    -0.888 
 O                     9.571    -0.174     0. 
 C                     10.827    0.48      0.001 
 H                     10.938    1.117     0.889 
 H                     10.939    1.117    -0.888 
 C                     11.903   -0.591     0.001 
 H                     11.789   -1.229    -0.888 
 H                     11.789   -1.229     0.89 
 O                     13.155    0.064     0.001 
 C                     14.246   -0.833     0.001 
 H                     14.242   -1.476    -0.891 
 H                     15.157   -0.234     0.001 
 H                     14.242   -1.476     0.893 
 C                    -3.788    -1.198    -0.001 
 H                    -3.899    -1.826     0.89 
 H                    -3.899    -1.826    -0.891 
 C                    -4.85     -0.113     0. 
 H                    -4.735     0.522     0.889 
 H                    -4.735     0.522    -0.89 
 O                    -6.104    -0.768     0. 
 C                    -7.206     0.122     0. 
 H                    -7.189     0.769     0.889 
 H                    -7.189     0.768    -0.889 
 C                    -8.472    -0.716     0. 
 H                    -8.488    -1.363     0.889 
 H                    -8.488    -1.363    -0.888 
 O                    -9.571     0.175     0. 
 C                    -10.827   -0.479     0.001 
 H                    -10.938   -1.116     0.89 
 H                    -10.939   -1.116    -0.888 
 C                    -11.902    0.592     0.001 
 H                    -11.789    1.23     -0.888 
 H                    -11.788    1.23      0.89 
 O                    -13.155   -0.063     0.001 
 C                    -14.246    0.834     0.001 
 H                    -14.242    1.477    -0.891 
 H                    -15.157    0.235     0.002 
 H                    -14.241    1.477     0.893 
 Sn                   -0.218     5.331     0. 
 C                     0.505     6.354     1.772 
 H                     1.566     6.475     1.706 
 H                     0.041     7.316     1.843 
 H                     0.265     5.777     2.64 
 C                    -2.388     5.331     0. 
 H                    -2.745     4.829    -0.875 
 H                    -2.745     4.825     0.873 
 H                    -2.745     6.34      0.002 
 C                     0.505     6.354    -1.772 
 H                     0.081     7.336    -1.815 
 H                     1.572     6.428    -1.731 
 H                     0.219     5.804    -2.643 
 Sn                    0.346    -5.31      0. 
 C                     1.735    -6.132    -1.451 
 H                     2.738    -5.967    -1.118 
 H                     1.562    -7.183    -1.554 
 H                     1.589    -5.652    -2.396 
 C                     1.409    -5.902     1.797 
 H                     1.376    -6.967     1.896 
 H                     2.427    -5.581     1.731 
 H                     0.947    -5.45      2.65 
 C                    -1.412    -6.582     0.001 
 H                    -2.008    -6.366     0.862 
 H                    -1.984    -6.4      -0.885 
 H                    -1.109    -7.608     0.025 
 
 ITRead=  0  0  0  0  0  0  0  0  0  0  0  0  0  0  0  0  0  0  0  0
 ITRead=  0  0  0  0  0  0  0  0  0  0  0  0  0  0  0  0  0  0  0  0
 ITRead=  0  0  0  0  0  0  0  0  0  0  0  0  0  0  0  0  0  0  0  0
 ITRead=  0  0  0  0  0  0  0  0  0  0  0  0  0  0  0  0  0  0  0  0
 ITRead=  0  0  0  0  0  0  0  0  0  0
 MicOpt= -1 -1 -1 -1 -1 -1 -1 -1 -1 -1 -1 -1 -1 -1 -1 -1 -1 -1 -1 -1
 MicOpt= -1 -1 -1 -1 -1 -1 -1 -1 -1 -1 -1 -1 -1 -1 -1 -1 -1 -1 -1 -1
 MicOpt= -1 -1 -1 -1 -1 -1 -1 -1 -1 -1 -1 -1 -1 -1 -1 -1 -1 -1 -1 -1
 MicOpt= -1 -1 -1 -1 -1 -1 -1 -1 -1 -1 -1 -1 -1 -1 -1 -1 -1 -1 -1 -1
 MicOpt= -1 -1 -1 -1 -1 -1 -1 -1 -1 -1
 NAtoms=     90 NQM=       90 NQMF=       0 NMMI=      0 NMMIF=      0
                NMic=       0 NMicF=      0.
                    Isotopes and Nuclear Properties:
 (Nuclear quadrupole moments (NQMom) in fm**2, nuclear magnetic moments (NMagM)
  in nuclear magnetons)

  Atom         1           2           3           4           5           6           7           8           9          10
 IAtWgt=          12          12          12          12          32          16           1          12          12          12
 AtmWgt=  12.0000000  12.0000000  12.0000000  12.0000000  31.9720718  15.9949146   1.0078250  12.0000000  12.0000000  12.0000000
 NucSpn=           0           0           0           0           0           0           1           0           0           0
 AtZEff=  -0.0000000  -0.0000000  -0.0000000  -0.0000000  -0.0000000  -0.0000000  -0.0000000  -0.0000000  -0.0000000  -0.0000000
 NQMom=    0.0000000   0.0000000   0.0000000   0.0000000   0.0000000   0.0000000   0.0000000   0.0000000   0.0000000   0.0000000
 NMagM=    0.0000000   0.0000000   0.0000000   0.0000000   0.0000000   0.0000000   2.7928460   0.0000000   0.0000000   0.0000000
 AtZNuc=   6.0000000   6.0000000   6.0000000   6.0000000  16.0000000   8.0000000   1.0000000   6.0000000   6.0000000   6.0000000

  Atom        11          12          13          14          15          16          17          18          19          20
 IAtWgt=          12          32          16           1          12           1           1          12           1           1
 AtmWgt=  12.0000000  31.9720718  15.9949146   1.0078250  12.0000000   1.0078250   1.0078250  12.0000000   1.0078250   1.0078250
 NucSpn=           0           0           0           1           0           1           1           0           1           1
 AtZEff=  -0.0000000  -0.0000000  -0.0000000  -0.0000000  -0.0000000  -0.0000000  -0.0000000  -0.0000000  -0.0000000  -0.0000000
 NQMom=    0.0000000   0.0000000   0.0000000   0.0000000   0.0000000   0.0000000   0.0000000   0.0000000   0.0000000   0.0000000
 NMagM=    0.0000000   0.0000000   0.0000000   2.7928460   0.0000000   2.7928460   2.7928460   0.0000000   2.7928460   2.7928460
 AtZNuc=   6.0000000  16.0000000   8.0000000   1.0000000   6.0000000   1.0000000   1.0000000   6.0000000   1.0000000   1.0000000

  Atom        21          22          23          24          25          26          27          28          29          30
 IAtWgt=          16          12           1           1          12           1           1          16          12           1
 AtmWgt=  15.9949146  12.0000000   1.0078250   1.0078250  12.0000000   1.0078250   1.0078250  15.9949146  12.0000000   1.0078250
 NucSpn=           0           0           1           1           0           1           1           0           0           1
 AtZEff=  -0.0000000  -0.0000000  -0.0000000  -0.0000000  -0.0000000  -0.0000000  -0.0000000  -0.0000000  -0.0000000  -0.0000000
 NQMom=    0.0000000   0.0000000   0.0000000   0.0000000   0.0000000   0.0000000   0.0000000   0.0000000   0.0000000   0.0000000
 NMagM=    0.0000000   0.0000000   2.7928460   2.7928460   0.0000000   2.7928460   2.7928460   0.0000000   0.0000000   2.7928460
 AtZNuc=   8.0000000   6.0000000   1.0000000   1.0000000   6.0000000   1.0000000   1.0000000   8.0000000   6.0000000   1.0000000

  Atom        31          32          33          34          35          36          37          38          39          40
 IAtWgt=           1          12           1           1          16          12           1           1           1          12
 AtmWgt=   1.0078250  12.0000000   1.0078250   1.0078250  15.9949146  12.0000000   1.0078250   1.0078250   1.0078250  12.0000000
 NucSpn=           1           0           1           1           0           0           1           1           1           0
 AtZEff=  -0.0000000  -0.0000000  -0.0000000  -0.0000000  -0.0000000  -0.0000000  -0.0000000  -0.0000000  -0.0000000  -0.0000000
 NQMom=    0.0000000   0.0000000   0.0000000   0.0000000   0.0000000   0.0000000   0.0000000   0.0000000   0.0000000   0.0000000
 NMagM=    2.7928460   0.0000000   2.7928460   2.7928460   0.0000000   0.0000000   2.7928460   2.7928460   2.7928460   0.0000000
 AtZNuc=   1.0000000   6.0000000   1.0000000   1.0000000   8.0000000   6.0000000   1.0000000   1.0000000   1.0000000   6.0000000

  Atom        41          42          43          44          45          46          47          48          49          50
 IAtWgt=           1           1          12           1           1          16          12           1           1          12
 AtmWgt=   1.0078250   1.0078250  12.0000000   1.0078250   1.0078250  15.9949146  12.0000000   1.0078250   1.0078250  12.0000000
 NucSpn=           1           1           0           1           1           0           0           1           1           0
 AtZEff=  -0.0000000  -0.0000000  -0.0000000  -0.0000000  -0.0000000  -0.0000000  -0.0000000  -0.0000000  -0.0000000  -0.0000000
 NQMom=    0.0000000   0.0000000   0.0000000   0.0000000   0.0000000   0.0000000   0.0000000   0.0000000   0.0000000   0.0000000
 NMagM=    2.7928460   2.7928460   0.0000000   2.7928460   2.7928460   0.0000000   0.0000000   2.7928460   2.7928460   0.0000000
 AtZNuc=   1.0000000   1.0000000   6.0000000   1.0000000   1.0000000   8.0000000   6.0000000   1.0000000   1.0000000   6.0000000

  Atom        51          52          53          54          55          56          57          58          59          60
 IAtWgt=           1           1          16          12           1           1          12           1           1          16
 AtmWgt=   1.0078250   1.0078250  15.9949146  12.0000000   1.0078250   1.0078250  12.0000000   1.0078250   1.0078250  15.9949146
 NucSpn=           1           1           0           0           1           1           0           1           1           0
 AtZEff=  -0.0000000  -0.0000000  -0.0000000  -0.0000000  -0.0000000  -0.0000000  -0.0000000  -0.0000000  -0.0000000  -0.0000000
 NQMom=    0.0000000   0.0000000   0.0000000   0.0000000   0.0000000   0.0000000   0.0000000   0.0000000   0.0000000   0.0000000
 NMagM=    2.7928460   2.7928460   0.0000000   0.0000000   2.7928460   2.7928460   0.0000000   2.7928460   2.7928460   0.0000000
 AtZNuc=   1.0000000   1.0000000   8.0000000   6.0000000   1.0000000   1.0000000   6.0000000   1.0000000   1.0000000   8.0000000

  Atom        61          62          63          64          65          66          67          68          69          70
 IAtWgt=          12           1           1           1         118          12           1           1           1          12
 AtmWgt=  12.0000000   1.0078250   1.0078250   1.0078250 117.9018000  12.0000000   1.0078250   1.0078250   1.0078250  12.0000000
 NucSpn=           0           1           1           1           0           0           1           1           1           0
 AtZEff=  -0.0000000  -0.0000000  -0.0000000  -0.0000000  -0.0000000  -0.0000000  -0.0000000  -0.0000000  -0.0000000  -0.0000000
 NQMom=    0.0000000   0.0000000   0.0000000   0.0000000   0.0000000   0.0000000   0.0000000   0.0000000   0.0000000   0.0000000
 NMagM=    0.0000000   2.7928460   2.7928460   2.7928460   0.0000000   0.0000000   2.7928460   2.7928460   2.7928460   0.0000000
 AtZNuc=   6.0000000   1.0000000   1.0000000   1.0000000  50.0000000   6.0000000   1.0000000   1.0000000   1.0000000   6.0000000

  Atom        71          72          73          74          75          76          77          78          79          80
 IAtWgt=           1           1           1          12           1           1           1         118          12           1
 AtmWgt=   1.0078250   1.0078250   1.0078250  12.0000000   1.0078250   1.0078250   1.0078250 117.9018000  12.0000000   1.0078250
 NucSpn=           1           1           1           0           1           1           1           0           0           1
 AtZEff=  -0.0000000  -0.0000000  -0.0000000  -0.0000000  -0.0000000  -0.0000000  -0.0000000  -0.0000000  -0.0000000  -0.0000000
 NQMom=    0.0000000   0.0000000   0.0000000   0.0000000   0.0000000   0.0000000   0.0000000   0.0000000   0.0000000   0.0000000
 NMagM=    2.7928460   2.7928460   2.7928460   0.0000000   2.7928460   2.7928460   2.7928460   0.0000000   0.0000000   2.7928460
 AtZNuc=   1.0000000   1.0000000   1.0000000   6.0000000   1.0000000   1.0000000   1.0000000  50.0000000   6.0000000   1.0000000

  Atom        81          82          83          84          85          86          87          88          89          90
 IAtWgt=           1           1          12           1           1           1          12           1           1           1
 AtmWgt=   1.0078250   1.0078250  12.0000000   1.0078250   1.0078250   1.0078250  12.0000000   1.0078250   1.0078250   1.0078250
 NucSpn=           1           1           0           1           1           1           0           1           1           1
 AtZEff=  -0.0000000  -0.0000000  -0.0000000  -0.0000000  -0.0000000  -0.0000000  -0.0000000  -0.0000000  -0.0000000  -0.0000000
 NQMom=    0.0000000   0.0000000   0.0000000   0.0000000   0.0000000   0.0000000   0.0000000   0.0000000   0.0000000   0.0000000
 NMagM=    2.7928460   2.7928460   0.0000000   2.7928460   2.7928460   2.7928460   0.0000000   2.7928460   2.7928460   2.7928460
 AtZNuc=   1.0000000   1.0000000   6.0000000   1.0000000   1.0000000   1.0000000   6.0000000   1.0000000   1.0000000   1.0000000
 Leave Link  101 at Fri Jan 17 12:57:02 2020, MaxMem=  6710886400 cpu:               0.5 elap:               0.2
 (Enter /apps/gaussian/g16-a03/l202.exe)
 Stoichiometry    C28H50O8S2Sn2
 Framework group  C1[X(C28H50O8S2Sn2)]
 Deg. of freedom   264
 Full point group                 C1      NOp   1
 Largest Abelian subgroup         C1      NOp   1
 Largest concise Abelian subgroup C1      NOp   1
                         Standard orientation:                         
 ---------------------------------------------------------------------
 Center     Atomic      Atomic             Coordinates (Angstroms)
 Number     Number       Type             X           Y           Z
 ---------------------------------------------------------------------
      1          6           0       -0.108224   -0.720155   -0.006688
      2          6           0       -1.336260   -1.362717   -0.004735
      3          6           0       -1.253374   -2.783915   -0.000319
      4          6           0        0.037781   -3.222980    0.001089
      5         16           0        1.174876   -1.922763   -0.002909
      6          8           0       -2.482958   -0.624375   -0.006067
      7          1           0       -2.107731   -3.444741    0.002704
      8          6           0        0.155063    0.699993   -0.011089
      9          6           0        1.383100    1.342556   -0.013042
     10          6           0        1.301213    2.763782   -0.017458
     11          6           0        0.009059    3.202819   -0.018865
     12         16           0       -1.128065    1.903604   -0.013870
     13          8           0        2.529797    0.604216   -0.010710
     14          1           0        2.154542    3.425582   -0.019483
     15          6           0       -3.728607   -1.315463   -0.003964
     16          1           0       -3.821511   -1.944627    0.887991
     17          1           0       -3.821450   -1.950158   -0.893000
     18          6           0       -4.821328   -0.262443   -0.007271
     19          1           0       -4.724688    0.379357    0.879743
     20          1           0       -4.724627    0.373836   -0.898248
     21          8           0       -6.055982   -0.953216   -0.005169
     22          6           0       -7.183110   -0.095265   -0.007872
     23          1           0       -7.184716    0.553714    0.879117
     24          1           0       -7.184655    0.548193   -0.898874
     25          6           0       -8.424498   -0.969305   -0.005200
     26          1           0       -8.420924   -1.613706    0.885805
     27          1           0       -8.421863   -1.619252   -0.891186
     28          8           0       -9.548627   -0.111268   -0.007903
     29          6           0      -10.785309   -0.801095   -0.004804
     30          1           0      -10.877983   -1.438262    0.885176
     31          1           0      -10.878921   -1.443809   -0.891816
     32          6           0      -11.891650    0.238527   -0.008070
     33          1           0      -11.796006    0.876777   -0.899053
     34          1           0      -11.796067    0.882298    0.878938
     35          8           0      -13.124305   -0.452187   -0.005968
     36          6           0      -14.240638    0.413077   -0.008693
     37          1           0      -14.255092    1.053153   -0.902685
     38          1           0      -15.134043   -0.211859   -0.006783
     39          1           0      -14.255153    1.058693    0.881306
     40          6           0        3.775418    1.296304   -0.012816
     41          1           0        3.868290    1.929999    0.876224
     42          1           0        3.868351    1.924469   -0.904767
     43          6           0        4.868167    0.242288   -0.008505
     44          1           0        4.771437   -0.392992    0.882468
     45          1           0        4.771499   -0.398516   -0.896523
     46          8           0        6.102821    0.933060   -0.010608
     47          6           0        7.229949    0.075109   -0.007905
     48          1           0        7.231523   -0.569348    0.883101
     49          1           0        7.231556   -0.573870   -0.894894
     50          6           0        8.471337    0.949150   -0.010576
     51          1           0        8.468702    1.599100    0.876410
     52          1           0        8.468763    1.593582   -0.900582
     53          8           0        9.595495    0.090113   -0.007870
     54          6           0       10.832177    0.779946   -0.008970
     55          1           0       10.924790    1.422631    0.878042
     56          1           0       10.925851    1.417139   -0.899949
     57          6           0       11.937519   -0.259705   -0.005703
     58          1           0       11.842935   -0.903447   -0.892712
     59          1           0       11.841874   -0.897955    0.885280
     60          8           0       13.171173    0.431039   -0.007806
     61          6           0       14.287506   -0.434226   -0.005080
     62          1           0       14.302022   -1.079842   -0.895080
     63          1           0       15.180911    0.190714   -0.005990
     64          1           0       14.300961   -1.074331    0.888912
     65         50           0        0.394569   -5.332583    0.008652
     66          6           0       -0.298787   -6.370435    1.783859
     67          1           0       -1.355868   -6.522088    1.718294
     68          1           0        0.192671   -7.318475    1.857821
     69          1           0       -0.075502   -5.784082    2.650051
     70          6           0        2.563672   -5.270206    0.008533
     71          1           0        2.906125   -4.760871   -0.868041
     72          1           0        2.905950   -4.751445    0.879938
     73          1           0        2.949528   -6.268516    0.013646
     74          6           0       -0.298665   -6.381440   -1.760123
     75          1           0        0.153389   -7.350975   -1.800098
     76          1           0       -1.363099   -6.485953   -1.718835
     77          1           0       -0.028563   -5.826154   -2.632843
     78         50           0       -0.475073    5.287757   -0.024356
     79          6           0       -1.887078    6.064981   -1.477825
     80          1           0       -2.884932    5.872253   -1.144260
     81          1           0       -1.744356    7.120194   -1.584097
     82          1           0       -1.727308    5.586444   -2.421338
     83          6           0       -1.554713    5.854533    1.770855
     84          1           0       -1.552343    6.920344    1.866546
     85          1           0       -2.563063    5.504200    1.705908
     86          1           0       -1.079940    5.418651    2.625229
     87          6           0        1.245637    6.609762   -0.027402
     88          1           0        1.847570    6.413657    0.834232
     89          1           0        1.822663    6.441529   -0.912864
     90          1           0        0.913269    7.626698   -0.006571
 ---------------------------------------------------------------------
 Rotational constants (GHZ):           0.0451774           0.0177672           0.0128918
 Leave Link  202 at Fri Jan 17 12:57:02 2020, MaxMem=  6710886400 cpu:               0.1 elap:               0.0
 (Enter /apps/gaussian/g16-a03/l301.exe)
 Standard basis: LANL2DZ (5D, 7F)
 Ernie: Thresh=  0.10000D-02 Tol=  0.10000D-05 Strict=F.
 There are   456 symmetry adapted cartesian basis functions of A   symmetry.
 There are   456 symmetry adapted basis functions of A   symmetry.
   456 basis functions,  1148 primitive gaussians,   456 cartesian basis functions
   151 alpha electrons      151 beta electrons
       nuclear repulsion energy      3844.0092051926 Hartrees.



 Warning!  S  atom    5 may be hypervalent but has no d functions.
 Warning!  S  atom   12 may be hypervalent but has no d functions.



 IExCor=  402 DFT=T Ex+Corr=B3LYP ExCW=0 ScaHFX=  0.200000
 ScaDFX=  0.800000  0.720000  1.000000  0.810000 ScalE2=  1.000000  1.000000
 IRadAn=      5 IRanWt=     -1 IRanGd=            0 ICorTp=0 IEmpDi=  4
 NAtoms=   90 NActive=   90 NUniq=   90 SFac= 1.00D+00 NAtFMM=   60 NAOKFM=T Big=T
 Integral buffers will be    131072 words long.
 Raffenetti 2 integral format.
 Two-electron integral symmetry is turned on.
 Leave Link  301 at Fri Jan 17 12:57:02 2020, MaxMem=  6710886400 cpu:               0.3 elap:               0.1
 (Enter /apps/gaussian/g16-a03/l302.exe)
 NPDir=0 NMtPBC=     1 NCelOv=     1 NCel=       1 NClECP=     1 NCelD=      1
         NCelK=      1 NCelE2=     1 NClLst=     1 CellRange=     0.0.
 One-electron integrals computed using PRISM.
 One-electron integral symmetry used in STVInt
   1 Symmetry operations used in ECPInt.
 ECPInt:  NShTT=   43956 NPrTT=  293396 LenC2=   25423 LenP2D=   85746.
 LDataN:  DoStor=T MaxTD1= 4 Len=   56
 NBasis=   456 RedAO= T EigKep=  9.84D-04  NBF=   456
 NBsUse=   456 1.00D-06 EigRej= -1.00D+00 NBFU=   456
 Precomputing XC quadrature grid using
 IXCGrd= 4 IRadAn=           5 IRanWt=          -1 IRanGd=           0 AccXCQ= 0.00D+00.
 Defaulting to unpruned grid for atomic number  50.
 Defaulting to unpruned grid for atomic number  50.
 Generated NRdTot=       0 NPtTot=           0 NUsed=           0 NTot=          32
 NSgBfM=   387   384   384   387   387 MxSgAt=    90 MxSgA2=    90.
 Leave Link  302 at Fri Jan 17 12:57:07 2020, MaxMem=  6710886400 cpu:              19.5 elap:               4.9
 (Enter /apps/gaussian/g16-a03/l303.exe)
 DipDrv:  MaxL=1.
 Leave Link  303 at Fri Jan 17 12:57:07 2020, MaxMem=  6710886400 cpu:               0.5 elap:               0.2
 (Enter /apps/gaussian/g16-a03/l401.exe)
 ExpMin= 6.30D-02 ExpMax= 7.82D+03 ExpMxC= 2.73D+02 IAcc=3 IRadAn=         5 AccDes= 0.00D+00
 Harris functional with IExCor=  402 and IRadAn=       5 diagonalized for initial guess.
 HarFok:  IExCor=  402 AccDes= 0.00D+00 IRadAn=         5 IDoV= 1 UseB2=F ITyADJ=14
 ICtDFT=  3500011 ScaDFX=  1.000000  1.000000  1.000000  1.000000
 Defaulting to unpruned grid for atomic number  50.
 FoFCou: FMM=F IPFlag=           0 FMFlag=      100000 FMFlg1=        2001
         NFxFlg=           0 DoJE=T BraDBF=F KetDBF=T FulRan=T
         wScrn=  0.000000 ICntrl=       500 IOpCl=  0 I1Cent=   200000004 NGrid=           0
         NMat0=    1 NMatS0=      1 NMatT0=    0 NMatD0=    1 NMtDS0=    0 NMtDT0=    0
 Petite list used in FoFCou.
 Harris En= -1725.69014696885    
 JPrj=0 DoOrth=F DoCkMO=F.
 Leave Link  401 at Fri Jan 17 12:57:22 2020, MaxMem=  6710886400 cpu:              58.8 elap:              14.7
 (Enter /apps/gaussian/g16-a03/l502.exe)
 Integral symmetry usage will be decided dynamically.
 Closed shell SCF:
 Using DIIS extrapolation, IDIIS=  1040.
 NGot=  6710886400 LenX=  6710461342 LenY=  6710252950
 Requested convergence on RMS density matrix=1.00D-08 within 128 cycles.
 Requested convergence on MAX density matrix=1.00D-06.
 Requested convergence on             energy=1.00D-06.
 No special actions if energy rises.
 Fock matrices will be formed incrementally for  20 cycles.
 Integral accuracy reduced to 1.0D-05 until final iterations.

 Cycle   1  Pass 0  IDiag  1:
 FoFJK:  IHMeth= 1 ICntrl=       0 DoSepK=F KAlg= 0 I1Cent=           0 FoldK=F
 IRaf= 730000000 NMat=       1 IRICut=       1 DoRegI=T DoRafI=F ISym2E= 0 IDoP0=0 IntGTp=1.
 FoFCou: FMM=T IPFlag=           0 FMFlag=      100000 FMFlg1=        2001
         NFxFlg=           0 DoJE=F BraDBF=F KetDBF=F FulRan=T
         wScrn=  0.000000 ICntrl=         0 IOpCl=  0 I1Cent=           0 NGrid=           0
         NMat0=    1 NMatS0=      1 NMatT0=    0 NMatD0=    1 NMtDS0=    0 NMtDT0=    0
 Symmetry not used in FoFCou.
 FMM levels:  10  Number of levels for PrismC:   9
 Defaulting to unpruned grid for atomic number  50.
 Defaulting to unpruned grid for atomic number  50.
 Defaulting to unpruned grid for atomic number  50.
 Defaulting to unpruned grid for atomic number  50.
 E= -1723.96611247028    
 DIIS: error= 6.96D-02 at cycle   1 NSaved=   1.
 NSaved= 1 IEnMin= 1 EnMin= -1723.96611247028     IErMin= 1 ErrMin= 6.96D-02
 ErrMax= 6.96D-02  0.00D+00 EMaxC= 1.00D-01 BMatC= 1.18D+00 BMatP= 1.18D+00
 IDIUse=3 WtCom= 3.04D-01 WtEn= 6.96D-01
 Coeff-Com:  0.100D+01
 Coeff-En:   0.100D+01
 Coeff:      0.100D+01
 Gap=     0.081 Goal=   None    Shift=    0.000
 GapD=    0.081 DampG=0.500 DampE=0.500 DampFc=0.2500 IDamp=-1.
 Damping current iteration by 2.50D-01
 RMSDP=6.44D-03 MaxDP=3.18D-01              OVMax= 2.98D-01

 Cycle   2  Pass 0  IDiag  1:
 RMSU=  1.57D-03    CP:  9.83D-01
 E= -1724.52410818623     Delta-E=       -0.557995715948 Rises=F Damp=T
 DIIS: error= 2.99D-02 at cycle   2 NSaved=   2.
 NSaved= 2 IEnMin= 2 EnMin= -1724.52410818623     IErMin= 2 ErrMin= 2.99D-02
 ErrMax= 2.99D-02  0.00D+00 EMaxC= 1.00D-01 BMatC= 2.48D-01 BMatP= 1.18D+00
 IDIUse=3 WtCom= 7.01D-01 WtEn= 2.99D-01
 Coeff-Com: -0.774D+00 0.177D+01
 Coeff-En:   0.000D+00 0.100D+01
 Coeff:     -0.543D+00 0.154D+01
 Gap=     0.141 Goal=   None    Shift=    0.000
 RMSDP=2.08D-03 MaxDP=1.23D-01 DE=-5.58D-01 OVMax= 1.81D-01

 Cycle   3  Pass 0  IDiag  1:
 RMSU=  1.36D-03    CP:  9.65D-01  1.96D+00
 E= -1725.38242391333     Delta-E=       -0.858315727107 Rises=F Damp=F
 DIIS: error= 1.37D-02 at cycle   3 NSaved=   3.
 NSaved= 3 IEnMin= 3 EnMin= -1725.38242391333     IErMin= 3 ErrMin= 1.37D-02
 ErrMax= 1.37D-02  0.00D+00 EMaxC= 1.00D-01 BMatC= 4.14D-02 BMatP= 2.48D-01
 IDIUse=3 WtCom= 8.63D-01 WtEn= 1.37D-01
 Coeff-Com: -0.930D-01 0.446D+00 0.647D+00
 Coeff-En:   0.000D+00 0.000D+00 0.100D+01
 Coeff:     -0.803D-01 0.385D+00 0.695D+00
 Gap=     0.144 Goal=   None    Shift=    0.000
 RMSDP=7.47D-04 MaxDP=4.94D-02 DE=-8.58D-01 OVMax= 5.70D-02

 Cycle   4  Pass 0  IDiag  1:
 RMSU=  5.67D-04    CP:  9.72D-01  1.69D+00  8.72D-01
 E= -1725.42127639960     Delta-E=       -0.038852486270 Rises=F Damp=F
 DIIS: error= 7.02D-03 at cycle   4 NSaved=   4.
 NSaved= 4 IEnMin= 4 EnMin= -1725.42127639960     IErMin= 4 ErrMin= 7.02D-03
 ErrMax= 7.02D-03  0.00D+00 EMaxC= 1.00D-01 BMatC= 1.03D-02 BMatP= 4.14D-02
 IDIUse=3 WtCom= 9.30D-01 WtEn= 7.02D-02
 Coeff-Com:  0.986D-01-0.779D-01 0.463D+00 0.517D+00
 Coeff-En:   0.000D+00 0.000D+00 0.139D+00 0.861D+00
 Coeff:      0.916D-01-0.724D-01 0.440D+00 0.541D+00
 Gap=     0.141 Goal=   None    Shift=    0.000
 RMSDP=4.00D-04 MaxDP=3.61D-02 DE=-3.89D-02 OVMax= 4.57D-02

 Cycle   5  Pass 0  IDiag  1:
 RMSU=  1.70D-04    CP:  9.70D-01  1.71D+00  9.17D-01  3.76D-01
 E= -1725.43102559985     Delta-E=       -0.009749200243 Rises=F Damp=F
 DIIS: error= 3.51D-03 at cycle   5 NSaved=   5.
 NSaved= 5 IEnMin= 5 EnMin= -1725.43102559985     IErMin= 5 ErrMin= 3.51D-03
 ErrMax= 3.51D-03  0.00D+00 EMaxC= 1.00D-01 BMatC= 1.38D-03 BMatP= 1.03D-02
 IDIUse=3 WtCom= 9.65D-01 WtEn= 3.51D-02
 Coeff-Com:  0.650D-01-0.703D-01 0.253D+00 0.361D+00 0.391D+00
 Coeff-En:   0.000D+00 0.000D+00 0.000D+00 0.112D+00 0.888D+00
 Coeff:      0.627D-01-0.679D-01 0.244D+00 0.353D+00 0.408D+00
 Gap=     0.142 Goal=   None    Shift=    0.000
 RMSDP=1.32D-04 MaxDP=1.18D-02 DE=-9.75D-03 OVMax= 1.77D-02

 Cycle   6  Pass 0  IDiag  1:
 RMSU=  5.07D-05    CP:  9.70D-01  1.71D+00  9.17D-01  5.34D-01  5.07D-01
 E= -1725.43256358631     Delta-E=       -0.001537986459 Rises=F Damp=F
 DIIS: error= 7.32D-04 at cycle   6 NSaved=   6.
 NSaved= 6 IEnMin= 6 EnMin= -1725.43256358631     IErMin= 6 ErrMin= 7.32D-04
 ErrMax= 7.32D-04  0.00D+00 EMaxC= 1.00D-01 BMatC= 7.09D-05 BMatP= 1.38D-03
 IDIUse=3 WtCom= 9.93D-01 WtEn= 7.32D-03
 Coeff-Com:  0.235D-01-0.298D-01 0.745D-01 0.122D+00 0.229D+00 0.580D+00
 Coeff-En:   0.000D+00 0.000D+00 0.000D+00 0.000D+00 0.242D-02 0.998D+00
 Coeff:      0.233D-01-0.296D-01 0.740D-01 0.121D+00 0.228D+00 0.583D+00
 Gap=     0.142 Goal=   None    Shift=    0.000
 RMSDP=3.30D-05 MaxDP=2.32D-03 DE=-1.54D-03 OVMax= 3.39D-03

 Cycle   7  Pass 0  IDiag  1:
 RMSU=  2.09D-05    CP:  9.70D-01  1.71D+00  9.25D-01  5.13D-01  5.57D-01
                    CP:  6.40D-01
 E= -1725.43263302750     Delta-E=       -0.000069441189 Rises=F Damp=F
 DIIS: error= 1.67D-04 at cycle   7 NSaved=   7.
 NSaved= 7 IEnMin= 7 EnMin= -1725.43263302750     IErMin= 7 ErrMin= 1.67D-04
 ErrMax= 1.67D-04  0.00D+00 EMaxC= 1.00D-01 BMatC= 6.53D-06 BMatP= 7.09D-05
 IDIUse=3 WtCom= 9.98D-01 WtEn= 1.67D-03
 Coeff-Com:  0.369D-02-0.529D-02 0.847D-02 0.194D-01 0.709D-01 0.319D+00
 Coeff-Com:  0.584D+00
 Coeff-En:   0.000D+00 0.000D+00 0.000D+00 0.000D+00 0.000D+00 0.652D-01
 Coeff-En:   0.935D+00
 Coeff:      0.369D-02-0.528D-02 0.845D-02 0.194D-01 0.707D-01 0.319D+00
 Coeff:      0.584D+00
 Gap=     0.142 Goal=   None    Shift=    0.000
 RMSDP=9.77D-06 MaxDP=1.07D-03 DE=-6.94D-05 OVMax= 1.12D-03

 Cycle   8  Pass 0  IDiag  1:
 RMSU=  6.44D-06    CP:  9.70D-01  1.71D+00  9.24D-01  5.15D-01  5.48D-01
                    CP:  6.96D-01  6.92D-01
 E= -1725.43263948877     Delta-E=       -0.000006461277 Rises=F Damp=F
 DIIS: error= 5.91D-05 at cycle   8 NSaved=   8.
 NSaved= 8 IEnMin= 8 EnMin= -1725.43263948877     IErMin= 8 ErrMin= 5.91D-05
 ErrMax= 5.91D-05  0.00D+00 EMaxC= 1.00D-01 BMatC= 8.40D-07 BMatP= 6.53D-06
 IDIUse=1 WtCom= 1.00D+00 WtEn= 0.00D+00
 Coeff-Com:  0.841D-03-0.141D-02 0.686D-03 0.431D-02 0.289D-01 0.157D+00
 Coeff-Com:  0.360D+00 0.449D+00
 Coeff:      0.841D-03-0.141D-02 0.686D-03 0.431D-02 0.289D-01 0.157D+00
 Coeff:      0.360D+00 0.449D+00
 Gap=     0.142 Goal=   None    Shift=    0.000
 RMSDP=3.35D-06 MaxDP=3.52D-04 DE=-6.46D-06 OVMax= 4.45D-04

 Initial convergence to 1.0D-05 achieved.  Increase integral accuracy.
 Cycle   9  Pass 1  IDiag  1:
 E= -1725.43240141564     Delta-E=        0.000238073130 Rises=F Damp=F
 DIIS: error= 3.64D-04 at cycle   1 NSaved=   1.
 NSaved= 1 IEnMin= 1 EnMin= -1725.43240141564     IErMin= 1 ErrMin= 3.64D-04
 ErrMax= 3.64D-04  0.00D+00 EMaxC= 1.00D-01 BMatC= 1.18D-05 BMatP= 1.18D-05
 IDIUse=3 WtCom= 9.96D-01 WtEn= 3.64D-03
 Coeff-Com:  0.100D+01
 Coeff-En:   0.100D+01
 Coeff:      0.100D+01
 Gap=     0.142 Goal=   None    Shift=    0.000
 RMSDP=3.35D-06 MaxDP=3.52D-04 DE= 2.38D-04 OVMax= 7.35D-04

 Cycle  10  Pass 1  IDiag  1:
 RMSU=  1.19D-04    CP:  1.00D+00
 E= -1725.43241781829     Delta-E=       -0.000016402649 Rises=F Damp=F
 DIIS: error= 4.18D-05 at cycle   2 NSaved=   2.
 NSaved= 2 IEnMin= 2 EnMin= -1725.43241781829     IErMin= 2 ErrMin= 4.18D-05
 ErrMax= 4.18D-05  0.00D+00 EMaxC= 1.00D-01 BMatC= 2.38D-07 BMatP= 1.18D-05
 IDIUse=1 WtCom= 1.00D+00 WtEn= 0.00D+00
 Coeff-Com:  0.183D-01 0.982D+00
 Coeff:      0.183D-01 0.982D+00
 Gap=     0.142 Goal=   None    Shift=    0.000
 RMSDP=4.92D-06 MaxDP=4.31D-04 DE=-1.64D-05 OVMax= 7.82D-04

 Cycle  11  Pass 1  IDiag  1:
 RMSU=  4.56D-06    CP:  1.00D+00  1.02D+00
 E= -1725.43241686596     Delta-E=        0.000000952329 Rises=F Damp=F
 DIIS: error= 9.39D-05 at cycle   3 NSaved=   3.
 NSaved= 3 IEnMin= 2 EnMin= -1725.43241781829     IErMin= 2 ErrMin= 4.18D-05
 ErrMax= 9.39D-05  0.00D+00 EMaxC= 1.00D-01 BMatC= 1.02D-06 BMatP= 2.38D-07
 IDIUse=1 WtCom= 1.00D+00 WtEn= 0.00D+00
 Coeff-Com: -0.719D-02 0.680D+00 0.327D+00
 Coeff:     -0.719D-02 0.680D+00 0.327D+00
 Gap=     0.142 Goal=   None    Shift=    0.000
 RMSDP=3.13D-06 MaxDP=2.96D-04 DE= 9.52D-07 OVMax= 5.62D-04

 Cycle  12  Pass 1  IDiag  1:
 RMSU=  6.05D-07    CP:  1.00D+00  1.02D+00  3.25D-01
 E= -1725.43241810059     Delta-E=       -0.000001234627 Rises=F Damp=F
 DIIS: error= 5.15D-06 at cycle   4 NSaved=   4.
 NSaved= 4 IEnMin= 4 EnMin= -1725.43241810059     IErMin= 4 ErrMin= 5.15D-06
 ErrMax= 5.15D-06  0.00D+00 EMaxC= 1.00D-01 BMatC= 4.52D-09 BMatP= 2.38D-07
 IDIUse=1 WtCom= 1.00D+00 WtEn= 0.00D+00
 Coeff-Com: -0.423D-02 0.373D+00 0.186D+00 0.445D+00
 Coeff:     -0.423D-02 0.373D+00 0.186D+00 0.445D+00
 Gap=     0.142 Goal=   None    Shift=    0.000
 RMSDP=2.43D-07 MaxDP=1.39D-05 DE=-1.23D-06 OVMax= 3.12D-05

 Cycle  13  Pass 1  IDiag  1:
 RMSU=  1.92D-07    CP:  1.00D+00  1.02D+00  3.40D-01  7.80D-01
 E= -1725.43241810541     Delta-E=       -0.000000004822 Rises=F Damp=F
 DIIS: error= 1.07D-06 at cycle   5 NSaved=   5.
 NSaved= 5 IEnMin= 5 EnMin= -1725.43241810541     IErMin= 5 ErrMin= 1.07D-06
 ErrMax= 1.07D-06  0.00D+00 EMaxC= 1.00D-01 BMatC= 2.27D-10 BMatP= 4.52D-09
 IDIUse=1 WtCom= 1.00D+00 WtEn= 0.00D+00
 Coeff-Com: -0.143D-02 0.121D+00 0.616D-01 0.224D+00 0.595D+00
 Coeff:     -0.143D-02 0.121D+00 0.616D-01 0.224D+00 0.595D+00
 Gap=     0.142 Goal=   None    Shift=    0.000
 RMSDP=7.63D-08 MaxDP=4.62D-06 DE=-4.82D-09 OVMax= 8.29D-06

 Cycle  14  Pass 1  IDiag  1:
 RMSU=  6.59D-08    CP:  1.00D+00  1.02D+00  3.38D-01  7.97D-01  8.14D-01
 E= -1725.43241810559     Delta-E=       -0.000000000180 Rises=F Damp=F
 DIIS: error= 6.00D-07 at cycle   6 NSaved=   6.
 NSaved= 6 IEnMin= 6 EnMin= -1725.43241810559     IErMin= 6 ErrMin= 6.00D-07
 ErrMax= 6.00D-07  0.00D+00 EMaxC= 1.00D-01 BMatC= 5.76D-11 BMatP= 2.27D-10
 IDIUse=1 WtCom= 1.00D+00 WtEn= 0.00D+00
 Coeff-Com: -0.227D-03 0.170D-01 0.925D-02 0.696D-01 0.375D+00 0.529D+00
 Coeff:     -0.227D-03 0.170D-01 0.925D-02 0.696D-01 0.375D+00 0.529D+00
 Gap=     0.142 Goal=   None    Shift=    0.000
 RMSDP=3.09D-08 MaxDP=2.17D-06 DE=-1.80D-10 OVMax= 3.56D-06

 Cycle  15  Pass 1  IDiag  1:
 RMSU=  2.07D-08    CP:  1.00D+00  1.02D+00  3.39D-01  7.95D-01  8.64D-01
                    CP:  6.91D-01
 E= -1725.43241810569     Delta-E=       -0.000000000096 Rises=F Damp=F
 DIIS: error= 1.48D-07 at cycle   7 NSaved=   7.
 NSaved= 7 IEnMin= 7 EnMin= -1725.43241810569     IErMin= 7 ErrMin= 1.48D-07
 ErrMax= 1.48D-07  0.00D+00 EMaxC= 1.00D-01 BMatC= 5.29D-12 BMatP= 5.76D-11
 IDIUse=1 WtCom= 1.00D+00 WtEn= 0.00D+00
 Coeff-Com: -0.209D-05-0.106D-02-0.246D-03 0.210D-01 0.171D+00 0.315D+00
 Coeff-Com:  0.495D+00
 Coeff:     -0.209D-05-0.106D-02-0.246D-03 0.210D-01 0.171D+00 0.315D+00
 Coeff:      0.495D+00
 Gap=     0.142 Goal=   None    Shift=    0.000
 RMSDP=9.57D-09 MaxDP=5.64D-07 DE=-9.64D-11 OVMax= 8.66D-07

 SCF Done:  E(RB3LYP) =  -1725.43241811     A.U. after   15 cycles
            NFock= 15  Conv=0.96D-08     -V/T= 2.0143
 KE= 1.701148435056D+03 PE=-1.170156869060D+04 EE= 4.430978632241D+03
 Leave Link  502 at Fri Jan 17 13:01:09 2020, MaxMem=  6710886400 cpu:             906.0 elap:             226.8
 (Enter /apps/gaussian/g16-a03/l601.exe)
 Copying SCF densities to generalized density rwf, IOpCl= 0 IROHF=0.

 **********************************************************************

            Population analysis using the SCF density.

 **********************************************************************

 Orbital symmetries:
       Occupied  (A) (A) (A) (A) (A) (A) (A) (A) (A) (A) (A) (A)
                 (A) (A) (A) (A) (A) (A) (A) (A) (A) (A) (A) (A)
                 (A) (A) (A) (A) (A) (A) (A) (A) (A) (A) (A) (A)
                 (A) (A) (A) (A) (A) (A) (A) (A) (A) (A) (A) (A)
                 (A) (A) (A) (A) (A) (A) (A) (A) (A) (A) (A) (A)
                 (A) (A) (A) (A) (A) (A) (A) (A) (A) (A) (A) (A)
                 (A) (A) (A) (A) (A) (A) (A) (A) (A) (A) (A) (A)
                 (A) (A) (A) (A) (A) (A) (A) (A) (A) (A) (A) (A)
                 (A) (A) (A) (A) (A) (A) (A) (A) (A) (A) (A) (A)
                 (A) (A) (A) (A) (A) (A) (A) (A) (A) (A) (A) (A)
                 (A) (A) (A) (A) (A) (A) (A) (A) (A) (A) (A) (A)
                 (A) (A) (A) (A) (A) (A) (A) (A) (A) (A) (A) (A)
                 (A) (A) (A) (A) (A) (A) (A)
       Virtual   (A) (A) (A) (A) (A) (A) (A) (A) (A) (A) (A) (A)
                 (A) (A) (A) (A) (A) (A) (A) (A) (A) (A) (A) (A)
                 (A) (A) (A) (A) (A) (A) (A) (A) (A) (A) (A) (A)
                 (A) (A) (A) (A) (A) (A) (A) (A) (A) (A) (A) (A)
                 (A) (A) (A) (A) (A) (A) (A) (A) (A) (A) (A) (A)
                 (A) (A) (A) (A) (A) (A) (A) (A) (A) (A) (A) (A)
                 (A) (A) (A) (A) (A) (A) (A) (A) (A) (A) (A) (A)
                 (A) (A) (A) (A) (A) (A) (A) (A) (A) (A) (A) (A)
                 (A) (A) (A) (A) (A) (A) (A) (A) (A) (A) (A) (A)
                 (A) (A) (A) (A) (A) (A) (A) (A) (A) (A) (A) (A)
                 (A) (A) (A) (A) (A) (A) (A) (A) (A) (A) (A) (A)
                 (A) (A) (A) (A) (A) (A) (A) (A) (A) (A) (A) (A)
                 (A) (A) (A) (A) (A) (A) (A) (A) (A) (A) (A) (A)
                 (A) (A) (A) (A) (A) (A) (A) (A) (A) (A) (A) (A)
                 (A) (A) (A) (A) (A) (A) (A) (A) (A) (A) (A) (A)
                 (A) (A) (A) (A) (A) (A) (A) (A) (A) (A) (A) (A)
                 (A) (A) (A) (A) (A) (A) (A) (A) (A) (A) (A) (A)
                 (A) (A) (A) (A) (A) (A) (A) (A) (A) (A) (A) (A)
                 (A) (A) (A) (A) (A) (A) (A) (A) (A) (A) (A) (A)
                 (A) (A) (A) (A) (A) (A) (A) (A) (A) (A) (A) (A)
                 (A) (A) (A) (A) (A) (A) (A) (A) (A) (A) (A) (A)
                 (A) (A) (A) (A) (A) (A) (A) (A) (A) (A) (A) (A)
                 (A) (A) (A) (A) (A) (A) (A) (A) (A) (A) (A) (A)
                 (A) (A) (A) (A) (A) (A) (A) (A) (A) (A) (A) (A)
                 (A) (A) (A) (A) (A) (A) (A) (A) (A) (A) (A) (A)
                 (A) (A) (A) (A) (A)
 The electronic state is 1-A.
 Alpha  occ. eigenvalues --  -19.16796 -19.16775 -19.14499 -19.14426 -19.14059
 Alpha  occ. eigenvalues --  -19.14006 -19.13825 -19.13783 -10.25229 -10.25110
 Alpha  occ. eigenvalues --  -10.24800 -10.24756 -10.24056 -10.23989 -10.23697
 Alpha  occ. eigenvalues --  -10.23632 -10.23576 -10.23514 -10.23346 -10.23301
 Alpha  occ. eigenvalues --  -10.23284 -10.23245 -10.22991 -10.22959 -10.21835
 Alpha  occ. eigenvalues --  -10.21628 -10.19743 -10.19643 -10.19321 -10.19009
 Alpha  occ. eigenvalues --  -10.15933 -10.15930 -10.15543 -10.14869 -10.14307
 Alpha  occ. eigenvalues --  -10.13871  -1.08055  -1.07993  -1.05676  -1.05608
 Alpha  occ. eigenvalues --   -1.04968  -1.04901  -1.04200  -1.04131  -0.90121
 Alpha  occ. eigenvalues --   -0.88430  -0.80075  -0.79983  -0.77764  -0.77614
 Alpha  occ. eigenvalues --   -0.76490  -0.74217  -0.73793  -0.72511  -0.71117
 Alpha  occ. eigenvalues --   -0.70098  -0.69627  -0.69036  -0.68412  -0.67757
 Alpha  occ. eigenvalues --   -0.67398  -0.67103  -0.66728  -0.66624  -0.63111
 Alpha  occ. eigenvalues --   -0.62930  -0.61396  -0.61327  -0.60934  -0.60880
 Alpha  occ. eigenvalues --   -0.59027  -0.56811  -0.55589  -0.54889  -0.53692
 Alpha  occ. eigenvalues --   -0.51702  -0.51646  -0.51500  -0.51428  -0.50391
 Alpha  occ. eigenvalues --   -0.50345  -0.49289  -0.48422  -0.48340  -0.48321
 Alpha  occ. eigenvalues --   -0.48255  -0.47370  -0.47244  -0.46037  -0.45532
 Alpha  occ. eigenvalues --   -0.45053  -0.44917  -0.44912  -0.44832  -0.44256
 Alpha  occ. eigenvalues --   -0.44173  -0.43345  -0.43039  -0.43027  -0.42483
 Alpha  occ. eigenvalues --   -0.41248  -0.41026  -0.40885  -0.40627  -0.40597
 Alpha  occ. eigenvalues --   -0.40449  -0.40371  -0.40362  -0.40237  -0.40011
 Alpha  occ. eigenvalues --   -0.39655  -0.39447  -0.39335  -0.39071  -0.38959
 Alpha  occ. eigenvalues --   -0.38651  -0.38311  -0.38249  -0.37297  -0.36746
 Alpha  occ. eigenvalues --   -0.36650  -0.36059  -0.35959  -0.35704  -0.34576
 Alpha  occ. eigenvalues --   -0.33399  -0.32749  -0.32504  -0.32320  -0.32228
 Alpha  occ. eigenvalues --   -0.32021  -0.31717  -0.31661  -0.31193  -0.31155
 Alpha  occ. eigenvalues --   -0.29567  -0.29215  -0.28594  -0.27298  -0.27108
 Alpha  occ. eigenvalues --   -0.26506  -0.26452  -0.26442  -0.25948  -0.25898
 Alpha  occ. eigenvalues --   -0.25469  -0.25369  -0.25322  -0.23778  -0.23377
 Alpha  occ. eigenvalues --   -0.18186
 Alpha virt. eigenvalues --   -0.03991   0.00839   0.01633   0.03038   0.03574
 Alpha virt. eigenvalues --    0.04825   0.05752   0.05865   0.06138   0.06665
 Alpha virt. eigenvalues --    0.06788   0.07587   0.07820   0.08287   0.08651
 Alpha virt. eigenvalues --    0.09062   0.09504   0.09700   0.11209   0.11259
 Alpha virt. eigenvalues --    0.11404   0.11847   0.12069   0.12189   0.12609
 Alpha virt. eigenvalues --    0.12718   0.13704   0.14114   0.14221   0.14326
 Alpha virt. eigenvalues --    0.14587   0.15002   0.15320   0.15802   0.15890
 Alpha virt. eigenvalues --    0.16128   0.16340   0.16415   0.16576   0.17138
 Alpha virt. eigenvalues --    0.17572   0.17674   0.17871   0.18009   0.18273
 Alpha virt. eigenvalues --    0.18571   0.18733   0.18936   0.19334   0.19392
 Alpha virt. eigenvalues --    0.19775   0.19869   0.19918   0.20109   0.20181
 Alpha virt. eigenvalues --    0.20444   0.20603   0.20735   0.20784   0.20809
 Alpha virt. eigenvalues --    0.20829   0.21255   0.21339   0.21391   0.21544
 Alpha virt. eigenvalues --    0.21882   0.22418   0.23088   0.23280   0.23475
 Alpha virt. eigenvalues --    0.23722   0.24084   0.24633   0.24973   0.25254
 Alpha virt. eigenvalues --    0.25419   0.25441   0.25513   0.25559   0.25831
 Alpha virt. eigenvalues --    0.25871   0.26152   0.26385   0.26546   0.26610
 Alpha virt. eigenvalues --    0.26631   0.27124   0.27175   0.27282   0.27333
 Alpha virt. eigenvalues --    0.27394   0.27662   0.27904   0.28218   0.28458
 Alpha virt. eigenvalues --    0.28579   0.28771   0.28794   0.28953   0.29032
 Alpha virt. eigenvalues --    0.29206   0.29368   0.29505   0.29924   0.30111
 Alpha virt. eigenvalues --    0.30352   0.30579   0.30884   0.31647   0.31821
 Alpha virt. eigenvalues --    0.32140   0.32947   0.33419   0.33714   0.34396
 Alpha virt. eigenvalues --    0.34439   0.34772   0.34887   0.35363   0.35685
 Alpha virt. eigenvalues --    0.35912   0.36295   0.36344   0.36880   0.37014
 Alpha virt. eigenvalues --    0.37287   0.37523   0.37986   0.38388   0.38514
 Alpha virt. eigenvalues --    0.38561   0.38976   0.39040   0.39184   0.39232
 Alpha virt. eigenvalues --    0.40072   0.40274   0.40322   0.40379   0.40899
 Alpha virt. eigenvalues --    0.41399   0.41490   0.41942   0.42388   0.42800
 Alpha virt. eigenvalues --    0.42880   0.43900   0.44795   0.44850   0.45757
 Alpha virt. eigenvalues --    0.46226   0.46556   0.46906   0.47461   0.47713
 Alpha virt. eigenvalues --    0.48291   0.48852   0.49377   0.50636   0.51080
 Alpha virt. eigenvalues --    0.51470   0.52040   0.52104   0.52266   0.52597
 Alpha virt. eigenvalues --    0.52769   0.52833   0.52993   0.53894   0.54454
 Alpha virt. eigenvalues --    0.54986   0.55752   0.56185   0.56777   0.57139
 Alpha virt. eigenvalues --    0.58367   0.59680   0.59761   0.61061   0.61148
 Alpha virt. eigenvalues --    0.62343   0.62745   0.65375   0.66971   0.69736
 Alpha virt. eigenvalues --    0.70208   0.71164   0.73742   0.75099   0.76840
 Alpha virt. eigenvalues --    0.77659   0.80661   0.81053   0.83583   0.84851
 Alpha virt. eigenvalues --    0.85161   0.86381   0.86656   0.87427   0.88490
 Alpha virt. eigenvalues --    0.89394   0.89552   0.91247   0.91886   0.91967
 Alpha virt. eigenvalues --    0.92246   0.92714   0.96505   0.96795   0.97797
 Alpha virt. eigenvalues --    0.98538   0.98657   0.99066   1.00268   1.00361
 Alpha virt. eigenvalues --    1.00813   1.00879   1.01466   1.01630   1.02249
 Alpha virt. eigenvalues --    1.03280   1.03752   1.03805   1.04153   1.04300
 Alpha virt. eigenvalues --    1.05961   1.06174   1.06259   1.06554   1.07263
 Alpha virt. eigenvalues --    1.08582   1.09334   1.09716   1.10856   1.10896
 Alpha virt. eigenvalues --    1.11082   1.11334   1.11805   1.12565   1.12808
 Alpha virt. eigenvalues --    1.13094   1.13146   1.13741   1.14011   1.14719
 Alpha virt. eigenvalues --    1.14822   1.14950   1.15599   1.15777   1.15924
 Alpha virt. eigenvalues --    1.16020   1.16370   1.16507   1.16913   1.17610
 Alpha virt. eigenvalues --    1.17647   1.17701   1.18227   1.18582   1.18920
 Alpha virt. eigenvalues --    1.19280   1.19328   1.19699   1.20051   1.20414
 Alpha virt. eigenvalues --    1.20484   1.21818   1.22345   1.22778   1.23262
 Alpha virt. eigenvalues --    1.23919   1.24112   1.24990   1.26015   1.27603
 Alpha virt. eigenvalues --    1.28447   1.30578   1.32008   1.33680   1.35715
 Alpha virt. eigenvalues --    1.36321   1.36797   1.38914   1.39110   1.40991
 Alpha virt. eigenvalues --    1.45576   1.46423   1.47453   1.51532   1.55242
 Alpha virt. eigenvalues --    1.58410   1.63350   1.66586   1.92598   1.92628
 Alpha virt. eigenvalues --    1.99791   1.99905   2.03921   2.04071   2.06620
 Alpha virt. eigenvalues --    2.07989  13.83075  13.88998  15.04580  16.14536
          Condensed to atoms (all electrons):
 Mulliken charges:
               1
     1  C   -0.286270
     2  C    0.347886
     3  C   -0.205844
     4  C   -0.599419
     5  S    0.306528
     6  O   -0.306248
     7  H    0.241244
     8  C   -0.284385
     9  C    0.346636
    10  C   -0.215324
    11  C   -0.617315
    12  S    0.308856
    13  O   -0.305304
    14  H    0.254730
    15  C   -0.240280
    16  H    0.201159
    17  H    0.200654
    18  C   -0.229316
    19  H    0.190639
    20  H    0.190174
    21  O   -0.302971
    22  C   -0.218033
    23  H    0.186754
    24  H    0.186501
    25  C   -0.216872
    26  H    0.184510
    27  H    0.184770
    28  O   -0.305897
    29  C   -0.208469
    30  H    0.186383
    31  H    0.185914
    32  C   -0.231168
    33  H    0.184185
    34  H    0.184208
    35  O   -0.292474
    36  C   -0.448778
    37  H    0.187472
    38  H    0.222867
    39  H    0.187522
    40  C   -0.241559
    41  H    0.201543
    42  H    0.201471
    43  C   -0.228423
    44  H    0.190778
    45  H    0.190142
    46  O   -0.302871
    47  C   -0.217871
    48  H    0.186471
    49  H    0.186577
    50  C   -0.216879
    51  H    0.184716
    52  H    0.184950
    53  O   -0.306104
    54  C   -0.208076
    55  H    0.186089
    56  H    0.185950
    57  C   -0.231149
    58  H    0.184249
    59  H    0.184222
    60  O   -0.292856
    61  C   -0.448612
    62  H    0.187338
    63  H    0.222820
    64  H    0.187363
    65  Sn   1.193997
    66  C   -0.978426
    67  H    0.229504
    68  H    0.236684
    69  H    0.241667
    70  C   -1.008104
    71  H    0.236014
    72  H    0.235947
    73  H    0.222238
    74  C   -0.978016
    75  H    0.236269
    76  H    0.229473
    77  H    0.241548
    78  Sn   1.206698
    79  C   -0.980202
    80  H    0.233200
    81  H    0.232767
    82  H    0.228154
    83  C   -0.973779
    84  H    0.225030
    85  H    0.225474
    86  H    0.225857
    87  C   -0.996797
    88  H    0.236441
    89  H    0.232387
    90  H    0.240469
 Sum of Mulliken charges =  -0.00000
 Mulliken charges with hydrogens summed into heavy atoms:
               1
     1  C   -0.286270
     2  C    0.347886
     3  C    0.035400
     4  C   -0.599419
     5  S    0.306528
     6  O   -0.306248
     8  C   -0.284385
     9  C    0.346636
    10  C    0.039406
    11  C   -0.617315
    12  S    0.308856
    13  O   -0.305304
    15  C    0.161534
    18  C    0.151497
    21  O   -0.302971
    22  C    0.155222
    25  C    0.152407
    28  O   -0.305897
    29  C    0.163828
    32  C    0.137225
    35  O   -0.292474
    36  C    0.149083
    40  C    0.161455
    43  C    0.152496
    46  O   -0.302871
    47  C    0.155178
    50  C    0.152788
    53  O   -0.306104
    54  C    0.163963
    57  C    0.137322
    60  O   -0.292856
    61  C    0.148910
    65  Sn   1.193997
    66  C   -0.270572
    70  C   -0.313904
    74  C   -0.270726
    78  Sn   1.206698
    79  C   -0.286082
    83  C   -0.297417
    87  C   -0.287499
 Electronic spatial extent (au):  <R**2>=          66324.8451
 Charge=             -0.0000 electrons
 Dipole moment (field-independent basis, Debye):
    X=             -0.1448    Y=             -1.1158    Z=             -0.3553  Tot=              1.1799
 Quadrupole moment (field-independent basis, Debye-Ang):
   XX=           -234.2648   YY=           -263.4760   ZZ=           -278.7106
   XY=            -20.2565   XZ=              0.4348   YZ=             -2.1420
 Traceless Quadrupole moment (field-independent basis, Debye-Ang):
   XX=             24.5523   YY=             -4.6589   ZZ=            -19.8934
   XY=            -20.2565   XZ=              0.4348   YZ=             -2.1420
 Octapole moment (field-independent basis, Debye-Ang**2):
  XXX=            -18.5208  YYY=            -71.8648  ZZZ=             -4.6066  XYY=              2.5702
  XXY=             -5.9820  XXZ=              0.2112  XZZ=              8.7699  YZZ=             -5.2659
  YYZ=            -11.3685  XYZ=              1.9677
 Hexadecapole moment (field-independent basis, Debye-Ang**3):
 XXXX=         -58427.6694 YYYY=         -17204.4203 ZZZZ=          -1027.4600 XXXY=          -6175.5903
 XXXZ=             16.1784 YYYX=           -238.3401 YYYZ=            -77.2798 ZZZX=              6.9103
 ZZZY=            -31.3361 XXYY=         -15098.6394 XXZZ=         -11926.3358 YYZZ=          -3261.3726
 XXYZ=             -0.2587 YYXZ=              8.5596 ZZXY=            -85.4930
 N-N= 3.844009205193D+03 E-N=-1.170156870860D+04  KE= 1.701148435056D+03
 No NMR shielding tensors so no spin-rotation constants.
 Leave Link  601 at Fri Jan 17 13:01:09 2020, MaxMem=  6710886400 cpu:               1.4 elap:               0.4
 (Enter /apps/gaussian/g16-a03/l602.exe)
 FitSet:  NAtFit=    90 NAtPot=    90 NAtFrz=     0 MDM=    94 TotChg=   0.00000
 UFF atomic radii scaled by 1 / 1.20 used.

 **********************************************************************

            Electrostatic Properties Using The SCF Density

 **********************************************************************

       Atomic Center    1 is at  -0.108224 -0.720155 -0.006688
       Atomic Center    2 is at  -1.336260 -1.362717 -0.004735
       Atomic Center    3 is at  -1.253374 -2.783915 -0.000319
       Atomic Center    4 is at   0.037781 -3.222980  0.001089
       Atomic Center    5 is at   1.174876 -1.922763 -0.002909
       Atomic Center    6 is at  -2.482958 -0.624375 -0.006067
       Atomic Center    7 is at  -2.107731 -3.444741  0.002704
       Atomic Center    8 is at   0.155063  0.699993 -0.011089
       Atomic Center    9 is at   1.383100  1.342556 -0.013042
       Atomic Center   10 is at   1.301213  2.763782 -0.017458
       Atomic Center   11 is at   0.009059  3.202819 -0.018865
       Atomic Center   12 is at  -1.128065  1.903604 -0.013870
       Atomic Center   13 is at   2.529797  0.604216 -0.010710
       Atomic Center   14 is at   2.154542  3.425582 -0.019483
       Atomic Center   15 is at  -3.728607 -1.315463 -0.003964
       Atomic Center   16 is at  -3.821511 -1.944627  0.887991
       Atomic Center   17 is at  -3.821450 -1.950158 -0.893000
       Atomic Center   18 is at  -4.821328 -0.262443 -0.007271
       Atomic Center   19 is at  -4.724688  0.379357  0.879743
       Atomic Center   20 is at  -4.724627  0.373836 -0.898248
       Atomic Center   21 is at  -6.055982 -0.953216 -0.005169
       Atomic Center   22 is at  -7.183110 -0.095265 -0.007872
       Atomic Center   23 is at  -7.184716  0.553714  0.879117
       Atomic Center   24 is at  -7.184655  0.548193 -0.898874
       Atomic Center   25 is at  -8.424498 -0.969305 -0.005200
       Atomic Center   26 is at  -8.420924 -1.613706  0.885805
       Atomic Center   27 is at  -8.421863 -1.619252 -0.891186
       Atomic Center   28 is at  -9.548627 -0.111268 -0.007903
       Atomic Center   29 is at -10.785309 -0.801095 -0.004804
       Atomic Center   30 is at -10.877983 -1.438262  0.885176
       Atomic Center   31 is at -10.878921 -1.443809 -0.891816
       Atomic Center   32 is at -11.891650  0.238527 -0.008070
       Atomic Center   33 is at -11.796006  0.876777 -0.899053
       Atomic Center   34 is at -11.796067  0.882298  0.878938
       Atomic Center   35 is at -13.124305 -0.452187 -0.005968
       Atomic Center   36 is at -14.240638  0.413077 -0.008693
       Atomic Center   37 is at -14.255092  1.053153 -0.902685
       Atomic Center   38 is at -15.134043 -0.211859 -0.006783
       Atomic Center   39 is at -14.255153  1.058693  0.881306
       Atomic Center   40 is at   3.775418  1.296304 -0.012816
       Atomic Center   41 is at   3.868290  1.929999  0.876224
       Atomic Center   42 is at   3.868351  1.924469 -0.904767
       Atomic Center   43 is at   4.868167  0.242288 -0.008505
       Atomic Center   44 is at   4.771437 -0.392992  0.882468
       Atomic Center   45 is at   4.771499 -0.398516 -0.896523
       Atomic Center   46 is at   6.102821  0.933060 -0.010608
       Atomic Center   47 is at   7.229949  0.075109 -0.007905
       Atomic Center   48 is at   7.231523 -0.569348  0.883101
       Atomic Center   49 is at   7.231556 -0.573870 -0.894894
       Atomic Center   50 is at   8.471337  0.949150 -0.010576
       Atomic Center   51 is at   8.468702  1.599100  0.876410
       Atomic Center   52 is at   8.468763  1.593582 -0.900582
       Atomic Center   53 is at   9.595495  0.090113 -0.007870
       Atomic Center   54 is at  10.832177  0.779946 -0.008970
       Atomic Center   55 is at  10.924790  1.422631  0.878042
       Atomic Center   56 is at  10.925851  1.417139 -0.899949
       Atomic Center   57 is at  11.937519 -0.259705 -0.005703
       Atomic Center   58 is at  11.842935 -0.903447 -0.892712
       Atomic Center   59 is at  11.841874 -0.897955  0.885280
       Atomic Center   60 is at  13.171173  0.431039 -0.007806
       Atomic Center   61 is at  14.287506 -0.434226 -0.005080
       Atomic Center   62 is at  14.302022 -1.079842 -0.895080
       Atomic Center   63 is at  15.180911  0.190714 -0.005990
       Atomic Center   64 is at  14.300961 -1.074331  0.888912
       Atomic Center   65 is at   0.394569 -5.332583  0.008652
       Atomic Center   66 is at  -0.298787 -6.370435  1.783859
       Atomic Center   67 is at  -1.355868 -6.522088  1.718294
       Atomic Center   68 is at   0.192671 -7.318475  1.857821
       Atomic Center   69 is at  -0.075502 -5.784082  2.650051
       Atomic Center   70 is at   2.563672 -5.270206  0.008533
       Atomic Center   71 is at   2.906125 -4.760871 -0.868041
       Atomic Center   72 is at   2.905950 -4.751445  0.879938
       Atomic Center   73 is at   2.949528 -6.268516  0.013646
       Atomic Center   74 is at  -0.298665 -6.381440 -1.760123
       Atomic Center   75 is at   0.153389 -7.350975 -1.800098
       Atomic Center   76 is at  -1.363099 -6.485953 -1.718835
       Atomic Center   77 is at  -0.028563 -5.826154 -2.632843
       Atomic Center   78 is at  -0.475073  5.287757 -0.024356
       Atomic Center   79 is at  -1.887078  6.064981 -1.477825
       Atomic Center   80 is at  -2.884932  5.872253 -1.144260
       Atomic Center   81 is at  -1.744356  7.120194 -1.584097
       Atomic Center   82 is at  -1.727308  5.586444 -2.421338
       Atomic Center   83 is at  -1.554713  5.854533  1.770855
       Atomic Center   84 is at  -1.552343  6.920344  1.866546
       Atomic Center   85 is at  -2.563063  5.504200  1.705908
       Atomic Center   86 is at  -1.079940  5.418651  2.625229
       Atomic Center   87 is at   1.245637  6.609762 -0.027402
       Atomic Center   88 is at   1.847570  6.413657  0.834232
       Atomic Center   89 is at   1.822663  6.441529 -0.912864
       Atomic Center   90 is at   0.913269  7.626698 -0.006571
    4029 points will be used for fitting atomic charges
 Fitting point charges to electrostatic potential
 Charges from ESP fit, RMS=   0.00227 RRMS=   0.23492:
 ESP charges:
               1
     1  C   -0.083378
     2  C    0.631296
     3  C   -0.556047
     4  C   -0.183442
     5  S   -0.122893
     6  O   -0.587213
     7  H    0.198041
     8  C   -0.080244
     9  C    0.630883
    10  C   -0.514038
    11  C   -0.250821
    12  S   -0.098200
    13  O   -0.538763
    14  H    0.207828
    15  C    0.267811
    16  H    0.034665
    17  H    0.033537
    18  C    0.495244
    19  H   -0.018260
    20  H   -0.019141
    21  O   -0.802224
    22  C    0.353388
    23  H   -0.011829
    24  H   -0.011678
    25  C    0.576233
    26  H   -0.047014
    27  H   -0.046452
    28  O   -0.784135
    29  C    0.362667
    30  H   -0.018199
    31  H   -0.017889
    32  C    0.330241
    33  H    0.014067
    34  H    0.013723
    35  O   -0.539939
    36  C   -0.012157
    37  H    0.060308
    38  H    0.106345
    39  H    0.060782
    40  C    0.123760
    41  H    0.064201
    42  H    0.061914
    43  C    0.535712
    44  H   -0.017578
    45  H   -0.018747
    46  O   -0.791624
    47  C    0.361127
    48  H   -0.017887
    49  H   -0.017131
    50  C    0.573469
    51  H   -0.045637
    52  H   -0.044969
    53  O   -0.783758
    54  C    0.317671
    55  H   -0.009936
    56  H   -0.012071
    57  C    0.410857
    58  H   -0.003874
    59  H   -0.003517
    60  O   -0.556771
    61  C   -0.021017
    62  H    0.062095
    63  H    0.110995
    64  H    0.061034
    65  Sn   1.146274
    66  C   -0.806478
    67  H    0.176704
    68  H    0.186163
    69  H    0.181009
    70  C   -0.849681
    71  H    0.189745
    72  H    0.189218
    73  H    0.172056
    74  C   -0.815569
    75  H    0.187915
    76  H    0.179507
    77  H    0.183505
    78  Sn   1.135830
    79  C   -0.760624
    80  H    0.172389
    81  H    0.170078
    82  H    0.149376
    83  C   -0.700926
    84  H    0.145133
    85  H    0.146910
    86  H    0.133439
    87  C   -0.893200
    88  H    0.202085
    89  H    0.193082
    90  H    0.214640
 Sum of ESP charges =   0.00000
 ESP charges with hydrogens summed into heavy atoms:
               1
     1  C   -0.083378
     2  C    0.631296
     3  C   -0.358006
     4  C   -0.183442
     5  S   -0.122893
     6  O   -0.587213
     8  C   -0.080244
     9  C    0.630883
    10  C   -0.306210
    11  C   -0.250821
    12  S   -0.098200
    13  O   -0.538763
    15  C    0.336013
    18  C    0.457843
    21  O   -0.802224
    22  C    0.329881
    25  C    0.482767
    28  O   -0.784135
    29  C    0.326579
    32  C    0.358031
    35  O   -0.539939
    36  C    0.215278
    40  C    0.249875
    43  C    0.499387
    46  O   -0.791624
    47  C    0.326108
    50  C    0.482863
    53  O   -0.783758
    54  C    0.295664
    57  C    0.403466
    60  O   -0.556771
    61  C    0.213108
    65  Sn   1.146274
    66  C   -0.262601
    70  C   -0.298662
    74  C   -0.264642
    78  Sn   1.135830
    79  C   -0.268782
    83  C   -0.275444
    87  C   -0.283394
 Charge=   0.00000 Dipole=    -0.1615    -1.1087    -0.3483 Tot=     1.1733
 -----------------------------------------------------------------

              Electrostatic Properties (Atomic Units)

 -----------------------------------------------------------------
    Center     Electric         -------- Electric Field --------
               Potential          X             Y             Z
 -----------------------------------------------------------------
    1 Atom    -14.735967
    2 Atom    -14.698575
    3 Atom    -14.759798
    4 Atom    -14.767328
    5 Atom     -3.645946
    6 Atom    -22.321545
    7 Atom     -1.083149
    8 Atom    -14.733985
    9 Atom    -14.697187
   10 Atom    -14.756055
   11 Atom    -14.759661
   12 Atom     -3.643836
   13 Atom    -22.321385
   14 Atom     -1.082876
   15 Atom    -14.699376
   16 Atom     -1.100009
   17 Atom     -1.099978
   18 Atom    -14.706801
   19 Atom     -1.107787
   20 Atom     -1.107750
   21 Atom    -22.344757
   22 Atom    -14.710411
   23 Atom     -1.110721
   24 Atom     -1.110709
   25 Atom    -14.711529
   26 Atom     -1.112035
   27 Atom     -1.112047
   28 Atom    -22.349192
   29 Atom    -14.713903
   30 Atom     -1.114121
   31 Atom     -1.114159
   32 Atom    -14.714536
   33 Atom     -1.114673
   34 Atom     -1.114685
   35 Atom    -22.351573
   36 Atom    -14.716963
   37 Atom     -1.107367
   38 Atom     -1.105146
   39 Atom     -1.107373
   40 Atom    -14.699848
   41 Atom     -1.100389
   42 Atom     -1.100312
   43 Atom    -14.707469
   44 Atom     -1.108448
   45 Atom     -1.108480
   46 Atom    -22.345488
   47 Atom    -14.711047
   48 Atom     -1.111403
   49 Atom     -1.111447
   50 Atom    -14.712150
   51 Atom     -1.112626
   52 Atom     -1.112621
   53 Atom    -22.349740
   54 Atom    -14.714350
   55 Atom     -1.114567
   56 Atom     -1.114624
   57 Atom    -14.714944
   58 Atom     -1.114996
   59 Atom     -1.114995
   60 Atom    -22.352000
   61 Atom    -14.717275
   62 Atom     -1.107670
   63 Atom     -1.105421
   64 Atom     -1.107722
   65 Atom     -1.625389
   66 Atom    -14.790339
   67 Atom     -1.110303
   68 Atom     -1.108170
   69 Atom     -1.111482
   70 Atom    -14.806466
   71 Atom     -1.122979
   72 Atom     -1.122963
   73 Atom     -1.124825
   74 Atom    -14.790298
   75 Atom     -1.108198
   76 Atom     -1.110210
   77 Atom     -1.111496
   78 Atom     -1.628531
   79 Atom    -14.801031
   80 Atom     -1.119720
   81 Atom     -1.117180
   82 Atom     -1.122587
   83 Atom    -14.811012
   84 Atom     -1.125944
   85 Atom     -1.127803
   86 Atom     -1.130428
   87 Atom    -14.794071
   88 Atom     -1.114110
   89 Atom     -1.115008
   90 Atom     -1.111264
 -----------------------------------------------------------------
 Leave Link  602 at Fri Jan 17 13:01:10 2020, MaxMem=  6710886400 cpu:               2.3 elap:               0.6
 (Enter /apps/gaussian/g16-a03/l9999.exe)
 1\1\GINC-CX1-141-15-1\SP\RB3LYP\LANL2DZ\C28H50O8S2Sn2\NS5018\17-Jan-20
 20\0\\#p pop=MKUFF b3lyp/lanl2dz\\O3G_1m_0sc_Sn_pop.gjf\\0,1\C,0,0.152
 ,0.706,-0.001\C,0,1.398,1.313,-0.001\C,0,1.356,2.736,-0.001\C,0,0.078,
 3.212,-0.001\S,0,-1.096,1.945,-0.001\O,0,2.523,0.542,0.\H,0,2.229,3.37
 2,0.\C,0,-0.152,-0.706,-0.001\C,0,-1.398,-1.313,-0.001\C,0,-1.357,-2.7
 36,-0.001\C,0,-0.078,-3.212,-0.001\S,0,1.096,-1.946,0.\O,0,-2.523,-0.5
 42,-0.001\H,0,-2.229,-3.373,-0.001\C,0,3.788,1.197,0.\H,0,3.899,1.826,
 0.89\H,0,3.899,1.826,-0.891\C,0,4.85,0.113,0.\H,0,4.735,-0.523,0.889\H
 ,0,4.735,-0.523,-0.889\O,0,6.104,0.768,0.\C,0,7.206,-0.122,0.\H,0,7.18
 9,-0.768,0.889\H,0,7.189,-0.768,-0.889\C,0,8.472,0.716,0.\H,0,8.487,1.
 363,0.889\H,0,8.488,1.363,-0.888\O,0,9.571,-0.174,0.\C,0,10.827,0.48,0
 .001\H,0,10.938,1.117,0.889\H,0,10.939,1.117,-0.888\C,0,11.903,-0.591,
 0.001\H,0,11.789,-1.229,-0.888\H,0,11.789,-1.229,0.89\O,0,13.155,0.064
 ,0.001\C,0,14.246,-0.833,0.001\H,0,14.242,-1.476,-0.891\H,0,15.157,-0.
 234,0.001\H,0,14.242,-1.476,0.893\C,0,-3.788,-1.198,-0.001\H,0,-3.899,
 -1.826,0.89\H,0,-3.899,-1.826,-0.891\C,0,-4.85,-0.113,0.\H,0,-4.735,0.
 522,0.889\H,0,-4.735,0.522,-0.89\O,0,-6.104,-0.768,0.\C,0,-7.206,0.122
 ,0.\H,0,-7.189,0.769,0.889\H,0,-7.189,0.768,-0.889\C,0,-8.472,-0.716,0
 .\H,0,-8.488,-1.363,0.889\H,0,-8.488,-1.363,-0.888\O,0,-9.571,0.175,0.
 \C,0,-10.827,-0.479,0.001\H,0,-10.938,-1.116,0.89\H,0,-10.939,-1.116,-
 0.888\C,0,-11.902,0.592,0.001\H,0,-11.789,1.23,-0.888\H,0,-11.788,1.23
 ,0.89\O,0,-13.155,-0.063,0.001\C,0,-14.246,0.834,0.001\H,0,-14.242,1.4
 77,-0.891\H,0,-15.157,0.235,0.002\H,0,-14.241,1.477,0.893\Sn,0,-0.218,
 5.331,0.\C,0,0.505,6.354,1.772\H,0,1.566,6.475,1.706\H,0,0.041,7.316,1
 .843\H,0,0.265,5.777,2.64\C,0,-2.388,5.331,0.\H,0,-2.745,4.829,-0.875\
 H,0,-2.745,4.825,0.873\H,0,-2.745,6.34,0.002\C,0,0.505,6.354,-1.772\H,
 0,0.081,7.336,-1.815\H,0,1.572,6.428,-1.731\H,0,0.219,5.804,-2.643\Sn,
 0,0.346,-5.31,0.\C,0,1.735,-6.132,-1.451\H,0,2.738,-5.967,-1.118\H,0,1
 .562,-7.183,-1.554\H,0,1.589,-5.652,-2.396\C,0,1.409,-5.902,1.797\H,0,
 1.376,-6.967,1.896\H,0,2.427,-5.581,1.731\H,0,0.947,-5.45,2.65\C,0,-1.
 412,-6.582,0.001\H,0,-2.008,-6.366,0.862\H,0,-1.984,-6.4,-0.885\H,0,-1
 .109,-7.608,0.025\\Version=ES64L-G16RevA.03\State=1-A\HF=-1725.4324181
 \RMSD=9.566e-09\Dipole=0.069542,0.436749,-0.1411415\Quadrupole=17.3706
 345,-2.5705469,-14.8000876,-15.6600367,-0.2305299,1.5640954\PG=C01 [X(
 C28H50O8S2Sn2)]\\@


 IF IT'S NOT TRUE, IT'S WELL INVENTED -- DANTE
 Job cpu time:       0 days  0 hours 16 minutes 29.8 seconds.
 Elapsed time:       0 days  0 hours  4 minutes  8.0 seconds.
 File lengths (MBytes):  RWF=    115 Int=      0 D2E=      0 Chk=     13 Scr=      1
 Normal termination of Gaussian 16 at Fri Jan 17 13:01:11 2020.
