 Entering Gaussian System, Link 0=g16
 Input=gaussian_b3lyp_pop.gjf
 Output=gaussian_b3lyp_pop.log
 Initial command:
 /apps/gaussian/g16-a03/l1.exe "/tmp/pbs.1040339.pbs/Gau-30806.inp" -scrdir="/tmp/pbs.1040339.pbs/"
 Entering Link 1 = /apps/gaussian/g16-a03/l1.exe PID=     30807.
  
 Copyright (c) 1988,1990,1992,1993,1995,1998,2003,2009,2016,
            Gaussian, Inc.  All Rights Reserved.
  
 This is part of the Gaussian(R) 16 program.  It is based on
 the Gaussian(R) 09 system (copyright 2009, Gaussian, Inc.),
 the Gaussian(R) 03 system (copyright 2003, Gaussian, Inc.),
 the Gaussian(R) 98 system (copyright 1998, Gaussian, Inc.),
 the Gaussian(R) 94 system (copyright 1995, Gaussian, Inc.),
 the Gaussian 92(TM) system (copyright 1992, Gaussian, Inc.),
 the Gaussian 90(TM) system (copyright 1990, Gaussian, Inc.),
 the Gaussian 88(TM) system (copyright 1988, Gaussian, Inc.),
 the Gaussian 86(TM) system (copyright 1986, Carnegie Mellon
 University), and the Gaussian 82(TM) system (copyright 1983,
 Carnegie Mellon University). Gaussian is a federally registered
 trademark of Gaussian, Inc.
  
 This software contains proprietary and confidential information,
 including trade secrets, belonging to Gaussian, Inc.
  
 This software is provided under written license and may be
 used, copied, transmitted, or stored only in accord with that
 written license.
  
 The following legend is applicable only to US Government
 contracts under FAR:
  
                    RESTRICTED RIGHTS LEGEND
  
 Use, reproduction and disclosure by the US Government is
 subject to restrictions as set forth in subparagraphs (a)
 and (c) of the Commercial Computer Software - Restricted
 Rights clause in FAR 52.227-19.
  
 Gaussian, Inc.
 340 Quinnipiac St., Bldg. 40, Wallingford CT 06492
  
  
 ---------------------------------------------------------------
 Warning -- This program may not be used in any manner that
 competes with the business of Gaussian, Inc. or will provide
 assistance to any competitor of Gaussian, Inc.  The licensee
 of this program is prohibited from giving any competitor of
 Gaussian, Inc. access to this program.  By using this program,
 the user acknowledges that Gaussian, Inc. is engaged in the
 business of creating and licensing software in the field of
 computational chemistry and represents and warrants to the
 licensee that it is not a competitor of Gaussian, Inc. and that
 it will not use this program in any manner prohibited above.
 ---------------------------------------------------------------
  

 Cite this work as:
 Gaussian 16, Revision A.03,
 M. J. Frisch, G. W. Trucks, H. B. Schlegel, G. E. Scuseria, 
 M. A. Robb, J. R. Cheeseman, G. Scalmani, V. Barone, 
 G. A. Petersson, H. Nakatsuji, X. Li, M. Caricato, A. V. Marenich, 
 J. Bloino, B. G. Janesko, R. Gomperts, B. Mennucci, H. P. Hratchian, 
 J. V. Ortiz, A. F. Izmaylov, J. L. Sonnenberg, D. Williams-Young, 
 F. Ding, F. Lipparini, F. Egidi, J. Goings, B. Peng, A. Petrone, 
 T. Henderson, D. Ranasinghe, V. G. Zakrzewski, J. Gao, N. Rega, 
 G. Zheng, W. Liang, M. Hada, M. Ehara, K. Toyota, R. Fukuda, 
 J. Hasegawa, M. Ishida, T. Nakajima, Y. Honda, O. Kitao, H. Nakai, 
 T. Vreven, K. Throssell, J. A. Montgomery, Jr., J. E. Peralta, 
 F. Ogliaro, M. J. Bearpark, J. J. Heyd, E. N. Brothers, K. N. Kudin, 
 V. N. Staroverov, T. A. Keith, R. Kobayashi, J. Normand, 
 K. Raghavachari, A. P. Rendell, J. C. Burant, S. S. Iyengar, 
 J. Tomasi, M. Cossi, J. M. Millam, M. Klene, C. Adamo, R. Cammi, 
 J. W. Ochterski, R. L. Martin, K. Morokuma, O. Farkas, 
 J. B. Foresman, and D. J. Fox, Gaussian, Inc., Wallingford CT, 2016.
 
 ******************************************
 Gaussian 16:  ES64L-G16RevA.03 25-Dec-2016
                 6-Feb-2020 
 ******************************************
 %mem=10GB
 %nprocshared=8
 Will use up to    8 processors via shared memory.
 %chk=gT2_innerdihscan.chk
 -----------------------------------------------------
 # opt b3lyp/6-311+g(d,p) geom=connectivity pop=ChelpG
 -----------------------------------------------------
 1/18=20,19=15,26=3,38=1,57=2/1,3;
 2/9=110,12=2,17=6,18=5,40=1/2;
 3/5=4,6=6,7=111,11=2,25=1,30=1,71=1,74=-5/1,2,3;
 4//1;
 5/5=2,38=5/2;
 6/7=2,8=2,9=2,10=2,15=8,20=3,28=1/1,2;
 7//1,2,3,16;
 1/18=20,19=15,26=3/3(2);
 2/9=110/2;
 99//99;
 2/9=110/2;
 3/5=4,6=6,7=111,11=2,25=1,30=1,71=1,74=-5/1,2,3;
 4/5=5,16=3,69=1/1;
 5/5=2,38=5/2;
 7//1,2,3,16;
 1/18=20,19=15,26=3/3(-5);
 2/9=110/2;
 6/7=2,8=2,9=2,10=2,15=8,19=2,20=3,28=1/1,2;
 99/9=1/99;
 -------------------
 Title Card Required
 -------------------
 Symbolic Z-matrix:
 Charge =  0 Multiplicity = 1
 C                    -0.59366  -0.41063  -0.00009 
 C                    -1.91734   0.00391  -0.00003 
 C                    -2.86398  -1.05921  -0.00001 
 C                    -2.25936  -2.2846   -0.0001 
 S                    -0.53724  -2.16837  -0.00024 
 H                    -3.93604  -0.92509   0.00005 
 H                    -2.73094  -3.25516  -0.00012 
 C                     0.59366   0.41063  -0.00009 
 C                     1.91734  -0.00391  -0.00002 
 S                     0.53724   2.16837  -0.00025 
 C                     2.86398   1.05921  -0.00001 
 C                     2.25936   2.2846   -0.0001 
 H                     3.93604   0.92509   0.00006 
 H                     2.73094   3.25516  -0.00012 
 O                    -2.20249   1.33737   0.00001 
 O                     2.20249  -1.33737   0.00002 
 H                     3.12567  -1.6007    0.00036 
 H                    -3.12567   1.6007    0.00036 
 

 GradGradGradGradGradGradGradGradGradGradGradGradGradGradGradGradGradGrad
 Berny optimization.
 Initialization pass.
                           ----------------------------
                           !    Initial Parameters    !
                           ! (Angstroms and Degrees)  !
 --------------------------                            --------------------------
 ! Name  Definition              Value          Derivative Info.                !
 --------------------------------------------------------------------------------
 ! R1    R(1,2)                  1.3871         estimate D2E/DX2                !
 ! R2    R(1,5)                  1.7586         estimate D2E/DX2                !
 ! R3    R(1,8)                  1.4437         estimate D2E/DX2                !
 ! R4    R(2,3)                  1.4235         estimate D2E/DX2                !
 ! R5    R(2,15)                 1.3636         estimate D2E/DX2                !
 ! R6    R(3,4)                  1.3664         estimate D2E/DX2                !
 ! R7    R(3,6)                  1.0804         estimate D2E/DX2                !
 ! R8    R(4,5)                  1.726          estimate D2E/DX2                !
 ! R9    R(4,7)                  1.0791         estimate D2E/DX2                !
 ! R10   R(8,9)                  1.3871         estimate D2E/DX2                !
 ! R11   R(8,10)                 1.7586         estimate D2E/DX2                !
 ! R12   R(9,11)                 1.4235         estimate D2E/DX2                !
 ! R13   R(9,16)                 1.3636         estimate D2E/DX2                !
 ! R14   R(10,12)                1.726          estimate D2E/DX2                !
 ! R15   R(11,12)                1.3664         estimate D2E/DX2                !
 ! R16   R(11,13)                1.0804         estimate D2E/DX2                !
 ! R17   R(12,14)                1.0791         estimate D2E/DX2                !
 ! R18   R(15,18)                0.96           estimate D2E/DX2                !
 ! R19   R(16,17)                0.96           estimate D2E/DX2                !
 ! A1    A(2,1,5)              109.228          estimate D2E/DX2                !
 ! A2    A(2,1,8)              127.9393         estimate D2E/DX2                !
 ! A3    A(5,1,8)              122.8328         estimate D2E/DX2                !
 ! A4    A(1,2,3)              114.2937         estimate D2E/DX2                !
 ! A5    A(1,2,15)             119.46           estimate D2E/DX2                !
 ! A6    A(3,2,15)             126.2463         estimate D2E/DX2                !
 ! A7    A(2,3,4)              112.0548         estimate D2E/DX2                !
 ! A8    A(2,3,6)              124.5521         estimate D2E/DX2                !
 ! A9    A(4,3,6)              123.3931         estimate D2E/DX2                !
 ! A10   A(3,4,5)              112.4009         estimate D2E/DX2                !
 ! A11   A(3,4,7)              127.8234         estimate D2E/DX2                !
 ! A12   A(5,4,7)              119.7757         estimate D2E/DX2                !
 ! A13   A(1,5,4)               92.0227         estimate D2E/DX2                !
 ! A14   A(1,8,9)              127.9393         estimate D2E/DX2                !
 ! A15   A(1,8,10)             122.8328         estimate D2E/DX2                !
 ! A16   A(9,8,10)             109.228          estimate D2E/DX2                !
 ! A17   A(8,9,11)             114.2937         estimate D2E/DX2                !
 ! A18   A(8,9,16)             119.46           estimate D2E/DX2                !
 ! A19   A(11,9,16)            126.2463         estimate D2E/DX2                !
 ! A20   A(8,10,12)             92.0227         estimate D2E/DX2                !
 ! A21   A(9,11,12)            112.0548         estimate D2E/DX2                !
 ! A22   A(9,11,13)            124.5521         estimate D2E/DX2                !
 ! A23   A(12,11,13)           123.3931         estimate D2E/DX2                !
 ! A24   A(10,12,11)           112.4009         estimate D2E/DX2                !
 ! A25   A(10,12,14)           119.7757         estimate D2E/DX2                !
 ! A26   A(11,12,14)           127.8234         estimate D2E/DX2                !
 ! A27   A(2,15,18)            117.9908         estimate D2E/DX2                !
 ! A28   A(9,16,17)            117.9908         estimate D2E/DX2                !
 ! D1    D(5,1,2,3)              0.0042         estimate D2E/DX2                !
 ! D2    D(5,1,2,15)          -179.9959         estimate D2E/DX2                !
 ! D3    D(8,1,2,3)           -179.9984         estimate D2E/DX2                !
 ! D4    D(8,1,2,15)             0.0015         estimate D2E/DX2                !
 ! D5    D(2,1,5,4)             -0.0042         estimate D2E/DX2                !
 ! D6    D(8,1,5,4)            179.9983         estimate D2E/DX2                !
 ! D7    D(2,1,8,9)            179.9937         estimate D2E/DX2                !
 ! D8    D(2,1,8,10)            -0.0091         estimate D2E/DX2                !
 ! D9    D(5,1,8,9)             -0.0093         estimate D2E/DX2                !
 ! D10   D(5,1,8,10)           179.9879         estimate D2E/DX2                !
 ! D11   D(1,2,3,4)             -0.0018         estimate D2E/DX2                !
 ! D12   D(1,2,3,6)            179.9988         estimate D2E/DX2                !
 ! D13   D(15,2,3,4)           179.9983         estimate D2E/DX2                !
 ! D14   D(15,2,3,6)            -0.0011         estimate D2E/DX2                !
 ! D15   D(1,2,15,18)         -179.9784         estimate D2E/DX2                !
 ! D16   D(3,2,15,18)            0.0215         estimate D2E/DX2                !
 ! D17   D(2,3,4,5)             -0.0015         estimate D2E/DX2                !
 ! D18   D(2,3,4,7)           -179.9988         estimate D2E/DX2                !
 ! D19   D(6,3,4,5)            179.9978         estimate D2E/DX2                !
 ! D20   D(6,3,4,7)              0.0006         estimate D2E/DX2                !
 ! D21   D(3,4,5,1)              0.0033         estimate D2E/DX2                !
 ! D22   D(7,4,5,1)           -179.9992         estimate D2E/DX2                !
 ! D23   D(1,8,9,11)          -179.9983         estimate D2E/DX2                !
 ! D24   D(1,8,9,16)             0.0014         estimate D2E/DX2                !
 ! D25   D(10,8,9,11)            0.0041         estimate D2E/DX2                !
 ! D26   D(10,8,9,16)         -179.9961         estimate D2E/DX2                !
 ! D27   D(1,8,10,12)          179.9982         estimate D2E/DX2                !
 ! D28   D(9,8,10,12)           -0.0042         estimate D2E/DX2                !
 ! D29   D(8,9,11,12)           -0.0018         estimate D2E/DX2                !
 ! D30   D(8,9,11,13)          179.9988         estimate D2E/DX2                !
 ! D31   D(16,9,11,12)         179.9985         estimate D2E/DX2                !
 ! D32   D(16,9,11,13)          -0.001          estimate D2E/DX2                !
 ! D33   D(8,9,16,17)         -179.9802         estimate D2E/DX2                !
 ! D34   D(11,9,16,17)           0.0196         estimate D2E/DX2                !
 ! D35   D(8,10,12,11)           0.0033         estimate D2E/DX2                !
 ! D36   D(8,10,12,14)        -179.9992         estimate D2E/DX2                !
 ! D37   D(9,11,12,10)          -0.0015         estimate D2E/DX2                !
 ! D38   D(9,11,12,14)        -179.9988         estimate D2E/DX2                !
 ! D39   D(13,11,12,10)        179.9979         estimate D2E/DX2                !
 ! D40   D(13,11,12,14)          0.0007         estimate D2E/DX2                !
 --------------------------------------------------------------------------------
 Trust Radius=3.00D-01 FncErr=1.00D-07 GrdErr=1.00D-06 EigMax=2.50D+02 EigMin=1.00D-04
 Number of steps in this run=     97 maximum allowed number of steps=    108.
 GradGradGradGradGradGradGradGradGradGradGradGradGradGradGradGradGradGrad

                          Input orientation:                          
 ---------------------------------------------------------------------
 Center     Atomic      Atomic             Coordinates (Angstroms)
 Number     Number       Type             X           Y           Z
 ---------------------------------------------------------------------
      1          6           0       -0.593663   -0.410632   -0.000087
      2          6           0       -1.917339    0.003914   -0.000030
      3          6           0       -2.863983   -1.059207   -0.000012
      4          6           0       -2.259364   -2.284600   -0.000096
      5         16           0       -0.537240   -2.168368   -0.000240
      6          1           0       -3.936038   -0.925086    0.000049
      7          1           0       -2.730943   -3.255156   -0.000122
      8          6           0        0.593663    0.410632   -0.000087
      9          6           0        1.917339   -0.003914   -0.000023
     10         16           0        0.537240    2.168368   -0.000245
     11          6           0        2.863983    1.059207   -0.000005
     12          6           0        2.259364    2.284600   -0.000095
     13          1           0        3.936038    0.925086    0.000062
     14          1           0        2.730943    3.255156   -0.000122
     15          8           0       -2.202491    1.337369    0.000005
     16          8           0        2.202491   -1.337369    0.000021
     17          1           0        3.125670   -1.600696    0.000359
     18          1           0       -3.125670    1.600696    0.000364
 ---------------------------------------------------------------------
                    Distance matrix (angstroms):
                    1          2          3          4          5
     1  C    0.000000
     2  C    1.387071   0.000000
     3  C    2.361144   1.423503   0.000000
     4  C    2.507253   2.313931   1.366438   0.000000
     5  S    1.758641   2.573613   2.577590   1.726042   0.000000
     6  H    3.381735   2.222203   1.080412   2.158591   3.619058
     7  H    3.557989   3.359090   2.199975   1.079058   2.448151
     8  C    1.443682   2.543728   3.757092   3.924798   2.816058
     9  C    2.543728   3.834686   4.896395   4.758821   3.272586
    10  S    2.816058   3.272586   4.688876   5.258319   4.467862
    11  C    3.757092   4.896395   6.107149   6.117984   4.688876
    12  C    3.924798   4.758821   6.117984   6.426235   5.258319
    13  H    4.722535   5.925418   7.083622   6.977470   5.438720
    14  H    4.948839   5.672486   7.065191   7.456008   6.332111
    15  O    2.375676   1.363603   2.486192   3.622415   3.881141
    16  O    2.945729   4.332671   5.074104   4.561293   2.862985
    17  H    3.905085   5.292137   6.014079   5.428288   3.706637
    18  H    3.233651   2.002442   2.672745   3.980705   4.572287
                    6          7          8          9         10
     6  H    0.000000
     7  H    2.623258   0.000000
     8  C    4.722535   4.948839   0.000000
     9  C    5.925418   5.672486   1.387071   0.000000
    10  S    5.438720   6.332111   1.758641   2.573613   0.000000
    11  C    7.083622   7.065191   2.361144   1.423503   2.577590
    12  C    6.977470   7.456008   2.507253   2.313931   1.726042
    13  H    8.086576   7.869121   3.381735   2.222203   3.619058
    14  H    7.869121   8.498021   3.557989   3.359090   2.448151
    15  O    2.850243   4.622829   2.945729   4.332671   2.862985
    16  O    6.152359   5.293078   2.375676   1.363603   3.881141
    17  H    7.093953   6.085816   3.233651   2.002442   4.572287
    18  H    2.652597   4.871869   3.905085   5.292137   3.706637
                   11         12         13         14         15
    11  C    0.000000
    12  C    1.366438   0.000000
    13  H    1.080412   2.158591   0.000000
    14  H    2.199975   1.079058   2.623258   0.000000
    15  O    5.074104   4.561293   6.152359   5.293078   0.000000
    16  O    2.486192   3.622415   2.850243   4.622829   5.153454
    17  H    2.672745   3.980705   2.652597   4.871869   6.084531
    18  H    6.014079   5.428288   7.093953   6.085816   0.960000
                   16         17         18
    16  O    0.000000
    17  H    0.960000   0.000000
    18  H    6.084531   7.023400   0.000000
 Stoichiometry    C8H6O2S2
 Framework group  C1[X(C8H6O2S2)]
 Deg. of freedom    48
 Full point group                 C1      NOp   1
 Largest Abelian subgroup         C1      NOp   1
 Largest concise Abelian subgroup C1      NOp   1
                         Standard orientation:                         
 ---------------------------------------------------------------------
 Center     Atomic      Atomic             Coordinates (Angstroms)
 Number     Number       Type             X           Y           Z
 ---------------------------------------------------------------------
      1          6           0        0.721800   -0.007662    0.000007
      2          6           0        1.562949   -1.110583    0.000064
      3          6           0        2.949758   -0.789458    0.000082
      4          6           0        3.163925    0.560092   -0.000002
      5         16           0        1.690946    1.459845   -0.000146
      6          1           0        3.747461   -1.518128    0.000143
      7          1           0        4.109455    1.080033   -0.000028
      8          6           0       -0.721800    0.007662    0.000007
      9          6           0       -1.562949    1.110583    0.000071
     10         16           0       -1.690946   -1.459845   -0.000151
     11          6           0       -2.949758    0.789458    0.000089
     12          6           0       -3.163925   -0.560092   -0.000001
     13          1           0       -3.747461    1.518128    0.000156
     14          1           0       -4.109455   -1.080033   -0.000028
     15          8           0        1.025574   -2.363836    0.000099
     16          8           0       -1.025574    2.363836    0.000115
     17          1           0       -1.627118    3.111997    0.000453
     18          1           0        1.627118   -3.111997    0.000457
 ---------------------------------------------------------------------
 Rotational constants (GHZ):           1.2851131           0.6279971           0.4218509
 Standard basis: 6-311+G(d,p) (5D, 7F)
 There are   328 symmetry adapted cartesian basis functions of A   symmetry.
 There are   316 symmetry adapted basis functions of A   symmetry.
   316 basis functions,   508 primitive gaussians,   328 cartesian basis functions
    51 alpha electrons       51 beta electrons
       nuclear repulsion energy       870.8463659266 Hartrees.
 NAtoms=   18 NActive=   18 NUniq=   18 SFac= 1.00D+00 NAtFMM=   60 NAOKFM=F Big=F
 Integral buffers will be    131072 words long.
 Raffenetti 2 integral format.
 Two-electron integral symmetry is turned on.
 One-electron integrals computed using PRISM.
 NBasis=   316 RedAO= T EigKep=  1.77D-06  NBF=   316
 NBsUse=   315 1.00D-06 EigRej=  6.87D-07 NBFU=   315
 ExpMin= 4.05D-02 ExpMax= 9.34D+04 ExpMxC= 3.17D+03 IAcc=3 IRadAn=         5 AccDes= 0.00D+00
 Harris functional with IExCor=  402 and IRadAn=       5 diagonalized for initial guess.
 HarFok:  IExCor=  402 AccDes= 0.00D+00 IRadAn=         5 IDoV= 1 UseB2=F ITyADJ=14
 ICtDFT=  3500011 ScaDFX=  1.000000  1.000000  1.000000  1.000000
 FoFCou: FMM=F IPFlag=           0 FMFlag=      100000 FMFlg1=           0
         NFxFlg=           0 DoJE=T BraDBF=F KetDBF=T FulRan=T
         wScrn=  0.000000 ICntrl=       500 IOpCl=  0 I1Cent=   200000004 NGrid=           0
         NMat0=    1 NMatS0=      1 NMatT0=    0 NMatD0=    1 NMtDS0=    0 NMtDT0=    0
 Petite list used in FoFCou.
 Requested convergence on RMS density matrix=1.00D-08 within 128 cycles.
 Requested convergence on MAX density matrix=1.00D-06.
 Requested convergence on             energy=1.00D-06.
 No special actions if energy rises.
 SCF Done:  E(RB3LYP) =  -1255.42923307     A.U. after   14 cycles
            NFock= 14  Conv=0.57D-08     -V/T= 2.0023

 **********************************************************************

            Population analysis using the SCF density.

 **********************************************************************

 Orbital symmetries:
       Occupied  (A) (A) (A) (A) (A) (A) (A) (A) (A) (A) (A) (A)
                 (A) (A) (A) (A) (A) (A) (A) (A) (A) (A) (A) (A)
                 (A) (A) (A) (A) (A) (A) (A) (A) (A) (A) (A) (A)
                 (A) (A) (A) (A) (A) (A) (A) (A) (A) (A) (A) (A)
                 (A) (A) (A)
       Virtual   (A) (A) (A) (A) (A) (A) (A) (A) (A) (A) (A) (A)
                 (A) (A) (A) (A) (A) (A) (A) (A) (A) (A) (A) (A)
                 (A) (A) (A) (A) (A) (A) (A) (A) (A) (A) (A) (A)
                 (A) (A) (A) (A) (A) (A) (A) (A) (A) (A) (A) (A)
                 (A) (A) (A) (A) (A) (A) (A) (A) (A) (A) (A) (A)
                 (A) (A) (A) (A) (A) (A) (A) (A) (A) (A) (A) (A)
                 (A) (A) (A) (A) (A) (A) (A) (A) (A) (A) (A) (A)
                 (A) (A) (A) (A) (A) (A) (A) (A) (A) (A) (A) (A)
                 (A) (A) (A) (A) (A) (A) (A) (A) (A) (A) (A) (A)
                 (A) (A) (A) (A) (A) (A) (A) (A) (A) (A) (A) (A)
                 (A) (A) (A) (A) (A) (A) (A) (A) (A) (A) (A) (A)
                 (A) (A) (A) (A) (A) (A) (A) (A) (A) (A) (A) (A)
                 (A) (A) (A) (A) (A) (A) (A) (A) (A) (A) (A) (A)
                 (A) (A) (A) (A) (A) (A) (A) (A) (A) (A) (A) (A)
                 (A) (A) (A) (A) (A) (A) (A) (A) (A) (A) (A) (A)
                 (A) (A) (A) (A) (A) (A) (A) (A) (A) (A) (A) (A)
                 (A) (A) (A) (A) (A) (A) (A) (A) (A) (A) (A) (A)
                 (A) (A) (A) (A) (A) (A) (A) (A) (A) (A) (A) (A)
                 (A) (A) (A) (A) (A) (A) (A) (A) (A) (A) (A) (A)
                 (A) (A) (A) (A) (A) (A) (A) (A) (A) (A) (A) (A)
                 (A) (A) (A) (A) (A) (A) (A) (A) (A) (A) (A) (A)
                 (A) (A) (A) (A) (A) (A) (A) (A) (A) (A) (A) (A)
 The electronic state is 1-A.
 Alpha  occ. eigenvalues --  -88.87253 -88.87253 -19.16119 -19.16119 -10.23859
 Alpha  occ. eigenvalues --  -10.23858 -10.20642 -10.20605 -10.19838 -10.19838
 Alpha  occ. eigenvalues --  -10.18028 -10.18028  -7.95814  -7.95814  -5.92127
 Alpha  occ. eigenvalues --   -5.92127  -5.91737  -5.91736  -5.91378  -5.91377
 Alpha  occ. eigenvalues --   -1.07098  -1.07016  -0.88906  -0.87194  -0.77012
 Alpha  occ. eigenvalues --   -0.73715  -0.72932  -0.70729  -0.61145  -0.61016
 Alpha  occ. eigenvalues --   -0.59297  -0.56139  -0.53505  -0.48863  -0.47436
 Alpha  occ. eigenvalues --   -0.46513  -0.43429  -0.43323  -0.42658  -0.41344
 Alpha  occ. eigenvalues --   -0.38092  -0.37462  -0.37322  -0.35160  -0.34941
 Alpha  occ. eigenvalues --   -0.34144  -0.33004  -0.27835  -0.24035  -0.23834
 Alpha  occ. eigenvalues --   -0.18898
 Alpha virt. eigenvalues --   -0.04013  -0.01496  -0.00665   0.00307   0.00953
 Alpha virt. eigenvalues --    0.00972   0.03026   0.03088   0.03964   0.04181
 Alpha virt. eigenvalues --    0.04711   0.05638   0.05955   0.06166   0.06430
 Alpha virt. eigenvalues --    0.06999   0.07467   0.08399   0.09166   0.10000
 Alpha virt. eigenvalues --    0.10172   0.10325   0.11517   0.11553   0.13130
 Alpha virt. eigenvalues --    0.13259   0.14205   0.14380   0.14410   0.15023
 Alpha virt. eigenvalues --    0.15446   0.15600   0.15715   0.16881   0.17403
 Alpha virt. eigenvalues --    0.17911   0.18416   0.18666   0.18943   0.19023
 Alpha virt. eigenvalues --    0.19620   0.19880   0.20032   0.20409   0.21626
 Alpha virt. eigenvalues --    0.21752   0.22351   0.24053   0.25036   0.25533
 Alpha virt. eigenvalues --    0.25987   0.26145   0.26844   0.27198   0.27620
 Alpha virt. eigenvalues --    0.28505   0.28715   0.29316   0.30573   0.30858
 Alpha virt. eigenvalues --    0.34094   0.34239   0.34822   0.35271   0.35809
 Alpha virt. eigenvalues --    0.37063   0.37080   0.37963   0.40799   0.42491
 Alpha virt. eigenvalues --    0.44191   0.46075   0.46544   0.47301   0.49401
 Alpha virt. eigenvalues --    0.49922   0.50515   0.52168   0.55023   0.55193
 Alpha virt. eigenvalues --    0.57084   0.57086   0.57501   0.57881   0.58204
 Alpha virt. eigenvalues --    0.60115   0.61205   0.61915   0.62494   0.63806
 Alpha virt. eigenvalues --    0.63976   0.66130   0.68672   0.70061   0.71540
 Alpha virt. eigenvalues --    0.73022   0.74421   0.75031   0.75389   0.76088
 Alpha virt. eigenvalues --    0.76326   0.77930   0.77933   0.78444   0.80822
 Alpha virt. eigenvalues --    0.82198   0.82342   0.84164   0.85541   0.86731
 Alpha virt. eigenvalues --    0.87413   0.88273   0.88516   0.90256   0.93094
 Alpha virt. eigenvalues --    0.96248   0.97790   0.98999   1.00576   1.01272
 Alpha virt. eigenvalues --    1.03252   1.03523   1.04958   1.05225   1.06633
 Alpha virt. eigenvalues --    1.07054   1.07428   1.08024   1.09779   1.13310
 Alpha virt. eigenvalues --    1.15878   1.17160   1.18703   1.23662   1.24466
 Alpha virt. eigenvalues --    1.24796   1.30203   1.33110   1.35380   1.36232
 Alpha virt. eigenvalues --    1.39939   1.41288   1.43818   1.45668   1.48449
 Alpha virt. eigenvalues --    1.53301   1.54512   1.55222   1.56189   1.58247
 Alpha virt. eigenvalues --    1.59710   1.61769   1.63155   1.64396   1.65943
 Alpha virt. eigenvalues --    1.66495   1.69416   1.75017   1.75547   1.76662
 Alpha virt. eigenvalues --    1.77308   1.78051   1.79879   1.80488   1.80553
 Alpha virt. eigenvalues --    1.87249   1.87273   1.87723   1.90006   1.92326
 Alpha virt. eigenvalues --    1.96375   1.97956   1.98339   2.01807   2.02893
 Alpha virt. eigenvalues --    2.03634   2.06606   2.06860   2.07729   2.09531
 Alpha virt. eigenvalues --    2.10530   2.11237   2.15812   2.16380   2.16472
 Alpha virt. eigenvalues --    2.17687   2.18527   2.22684   2.38846   2.40209
 Alpha virt. eigenvalues --    2.44625   2.50765   2.53657   2.57595   2.59535
 Alpha virt. eigenvalues --    2.61536   2.63822   2.64894   2.66779   2.67316
 Alpha virt. eigenvalues --    2.71721   2.72512   2.73423   2.74838   2.75758
 Alpha virt. eigenvalues --    2.78237   2.83587   2.91164   2.95302   2.98821
 Alpha virt. eigenvalues --    2.98873   2.98912   3.04459   3.04707   3.13169
 Alpha virt. eigenvalues --    3.13687   3.20053   3.20294   3.20787   3.21851
 Alpha virt. eigenvalues --    3.29182   3.31428   3.34092   3.34901   3.39270
 Alpha virt. eigenvalues --    3.44485   3.44810   3.50571   3.55917   3.74039
 Alpha virt. eigenvalues --    3.92841   3.94332   3.98542   4.07460   4.08472
 Alpha virt. eigenvalues --    4.18247   4.28413   4.57500   4.99255   5.00134
 Alpha virt. eigenvalues --    5.42110   5.42570   5.77023   5.80372   7.99612
 Alpha virt. eigenvalues --    8.01148  17.28972  17.29978  17.47707  17.50116
 Alpha virt. eigenvalues --   17.53896  17.58500  23.49450  23.69881  23.81471
 Alpha virt. eigenvalues --   23.84714  24.03449  24.03730  24.15487  24.16014
 Alpha virt. eigenvalues --   49.94026  49.95430 189.15887 189.18101
          Condensed to atoms (all electrons):
               1          2          3          4          5          6
     1  C    9.008901  -3.657577   0.841090  -0.665973   0.751119   0.033684
     2  C   -3.657577  16.428996  -6.025674   1.640163  -2.024646  -0.140740
     3  C    0.841090  -6.025674  12.045597  -0.889694   0.291405   0.419485
     4  C   -0.665973   1.640163  -0.889694   6.062998  -0.103780   0.014249
     5  S    0.751119  -2.024646   0.291405  -0.103780  17.022544   0.016747
     6  H    0.033684  -0.140740   0.419485   0.014249   0.016747   0.542869
     7  H    0.045630  -0.084460   0.083127   0.327782  -0.017503  -0.005205
     8  C    0.012388  -1.055166   0.070408  -0.164780   0.635618   0.003539
     9  C   -1.055166   1.081944  -0.180109  -0.107645  -0.443060   0.001738
    10  S    0.635618  -0.443060  -0.054168   0.055132   0.154085  -0.000298
    11  C    0.070408  -0.180109  -0.049959   0.005192  -0.054168   0.000032
    12  C   -0.164780  -0.107645   0.005191  -0.025932   0.055132   0.000087
    13  H    0.003539   0.001738   0.000032   0.000087  -0.000298   0.000000
    14  H    0.000249   0.004192   0.000327   0.000001  -0.000798   0.000000
    15  O   -0.103588   0.043119   0.060858   0.007793   0.040671  -0.001675
    16  O    0.004415   0.023822  -0.006457   0.008119  -0.080075   0.000037
    17  H    0.008440  -0.005080   0.001801  -0.000848   0.018094   0.000000
    18  H   -0.006808   0.292765  -0.306391   0.015215  -0.007463   0.000862
               7          8          9         10         11         12
     1  C    0.045630   0.012388  -1.055166   0.635618   0.070408  -0.164780
     2  C   -0.084460  -1.055166   1.081944  -0.443060  -0.180109  -0.107645
     3  C    0.083127   0.070408  -0.180109  -0.054168  -0.049959   0.005191
     4  C    0.327782  -0.164780  -0.107645   0.055132   0.005192  -0.025932
     5  S   -0.017503   0.635618  -0.443060   0.154085  -0.054168   0.055132
     6  H   -0.005205   0.003539   0.001738  -0.000298   0.000032   0.000087
     7  H    0.489887   0.000249   0.004192  -0.000798   0.000327   0.000001
     8  C    0.000249   9.008901  -3.657577   0.751119   0.841090  -0.665973
     9  C    0.004192  -3.657577  16.428996  -2.024646  -6.025675   1.640163
    10  S   -0.000798   0.751119  -2.024646  17.022544   0.291405  -0.103780
    11  C    0.000327   0.841090  -6.025675   0.291405  12.045597  -0.889695
    12  C    0.000001  -0.665973   1.640163  -0.103780  -0.889695   6.062998
    13  H    0.000000   0.033684  -0.140740   0.016747   0.419485   0.014249
    14  H    0.000000   0.045630  -0.084460  -0.017503   0.083127   0.327782
    15  O   -0.000304   0.004415   0.023822  -0.080075  -0.006457   0.008119
    16  O   -0.000052  -0.103588   0.043119   0.040671   0.060858   0.007793
    17  H   -0.000006  -0.006808   0.292765  -0.007463  -0.306391   0.015215
    18  H   -0.000013   0.008440  -0.005080   0.018094   0.001801  -0.000848
              13         14         15         16         17         18
     1  C    0.003539   0.000249  -0.103588   0.004415   0.008440  -0.006808
     2  C    0.001738   0.004192   0.043119   0.023822  -0.005080   0.292765
     3  C    0.000032   0.000327   0.060858  -0.006457   0.001801  -0.306391
     4  C    0.000087   0.000001   0.007793   0.008119  -0.000848   0.015215
     5  S   -0.000298  -0.000798   0.040671  -0.080075   0.018094  -0.007463
     6  H    0.000000   0.000000  -0.001675   0.000037   0.000000   0.000862
     7  H    0.000000   0.000000  -0.000304  -0.000052  -0.000006  -0.000013
     8  C    0.033684   0.045630   0.004415  -0.103588  -0.006808   0.008440
     9  C   -0.140740  -0.084460   0.023822   0.043119   0.292765  -0.005080
    10  S    0.016747  -0.017503  -0.080075   0.040671  -0.007463   0.018094
    11  C    0.419485   0.083127  -0.006457   0.060858  -0.306391   0.001801
    12  C    0.014249   0.327782   0.008119   0.007793   0.015215  -0.000848
    13  H    0.542869  -0.005205   0.000037  -0.001675   0.000862   0.000000
    14  H   -0.005205   0.489887  -0.000052  -0.000304  -0.000013  -0.000006
    15  O    0.000037  -0.000052   8.073260  -0.001443  -0.000066   0.188962
    16  O   -0.001675  -0.000304  -0.001443   8.073260   0.188962  -0.000066
    17  H    0.000862  -0.000013  -0.000066   0.188962   0.522137  -0.000000
    18  H    0.000000  -0.000006   0.188962  -0.000066  -0.000000   0.522137
 Mulliken charges:
               1
     1  C    0.238412
     2  C    0.207419
     3  C   -0.306868
     4  C   -0.178079
     5  S   -0.253623
     6  H    0.114588
     7  H    0.157145
     8  C    0.238412
     9  C    0.207419
    10  S   -0.253623
    11  C   -0.306868
    12  C   -0.178079
    13  H    0.114588
    14  H    0.157145
    15  O   -0.257394
    16  O   -0.257394
    17  H    0.278400
    18  H    0.278400
 Sum of Mulliken charges =  -0.00000
 Mulliken charges with hydrogens summed into heavy atoms:
               1
     1  C    0.238412
     2  C    0.207419
     3  C   -0.192280
     4  C   -0.020934
     5  S   -0.253623
     8  C    0.238412
     9  C    0.207419
    10  S   -0.253623
    11  C   -0.192280
    12  C   -0.020934
    15  O    0.021006
    16  O    0.021006
 Electronic spatial extent (au):  <R**2>=           2473.3495
 Charge=             -0.0000 electrons
 Dipole moment (field-independent basis, Debye):
    X=             -0.0000    Y=              0.0000    Z=              0.0011  Tot=              0.0011
 Quadrupole moment (field-independent basis, Debye-Ang):
   XX=            -66.5032   YY=            -69.8727   ZZ=            -89.6856
   XY=            -10.2745   XZ=              0.0000   YZ=             -0.0001
 Traceless Quadrupole moment (field-independent basis, Debye-Ang):
   XX=              8.8506   YY=              5.4812   ZZ=            -14.3318
   XY=            -10.2745   XZ=              0.0000   YZ=             -0.0001
 Octapole moment (field-independent basis, Debye-Ang**2):
  XXX=             -0.0000  YYY=              0.0000  ZZZ=              0.0005  XYY=             -0.0000
  XXY=              0.0000  XXZ=              0.0046  XZZ=              0.0000  YZZ=             -0.0000
  YYZ=              0.0157  XYZ=             -0.0106
 Hexadecapole moment (field-independent basis, Debye-Ang**3):
 XXXX=          -1975.6312 YYYY=           -802.3926 ZZZZ=           -109.8174 XXXY=            -26.6716
 XXXZ=              0.0003 YYYX=           -154.4854 YYYZ=             -0.0021 ZZZX=              0.0006
 ZZZY=             -0.0012 XXYY=           -417.7432 XXZZ=           -441.7597 YYZZ=           -199.9021
 XXYZ=             -0.0003 YYXZ=              0.0006 ZZXY=             -6.8905
 N-N= 8.708463659266D+02 E-N=-4.708057087233D+03  KE= 1.252510818057D+03
 Breneman (CHELPG) radii used.
 Generate Potential Derived Charges using the Breneman model, NDens= 1.
 Grid spacing= 0.300 Box extension= 2.800
 NStep X,Y,Z=   48     41     20   Total possible points=       39360
 Number of Points to Fit=   12574

 **********************************************************************

            Electrostatic Properties Using The SCF Density

 **********************************************************************

       Atomic Center    1 is at   0.721800 -0.007662  0.000007
       Atomic Center    2 is at   1.562949 -1.110583  0.000064
       Atomic Center    3 is at   2.949758 -0.789458  0.000082
       Atomic Center    4 is at   3.163925  0.560092 -0.000002
       Atomic Center    5 is at   1.690946  1.459845 -0.000146
       Atomic Center    6 is at   3.747461 -1.518128  0.000143
       Atomic Center    7 is at   4.109455  1.080033 -0.000028
       Atomic Center    8 is at  -0.721800  0.007662  0.000007
       Atomic Center    9 is at  -1.562949  1.110583  0.000071
       Atomic Center   10 is at  -1.690946 -1.459845 -0.000151
       Atomic Center   11 is at  -2.949758  0.789458  0.000089
       Atomic Center   12 is at  -3.163925 -0.560092 -0.000001
       Atomic Center   13 is at  -3.747461  1.518128  0.000156
       Atomic Center   14 is at  -4.109455 -1.080033 -0.000028
       Atomic Center   15 is at   1.025574 -2.363836  0.000099
       Atomic Center   16 is at  -1.025574  2.363836  0.000115
       Atomic Center   17 is at  -1.627118  3.111997  0.000453
       Atomic Center   18 is at   1.627118 -3.111997  0.000457
   12574 points will be used for fitting atomic charges
 Fitting point charges to electrostatic potential
 Charges from ESP fit, RMS=   0.00487 RRMS=   0.28752:
 ESP charges:
               1
     1  C   -0.053157
     2  C    0.397770
     3  C   -0.298828
     4  C   -0.193931
     5  S   -0.000284
     6  H    0.144265
     7  H    0.180507
     8  C   -0.053157
     9  C    0.397770
    10  S   -0.000284
    11  C   -0.298828
    12  C   -0.193931
    13  H    0.144265
    14  H    0.180507
    15  O   -0.604347
    16  O   -0.604347
    17  H    0.428006
    18  H    0.428006
 Sum of ESP charges =   0.00000
 ESP charges with hydrogens summed into heavy atoms:
               1
     1  C   -0.053157
     2  C    0.397770
     3  C   -0.154563
     4  C   -0.013424
     5  S   -0.000284
     8  C   -0.053157
     9  C    0.397770
    10  S   -0.000284
    11  C   -0.154563
    12  C   -0.013424
    15  O   -0.176342
    16  O   -0.176342
 Charge=   0.00000 Dipole=    -0.0000     0.0000     0.0014 Tot=     0.0014
 -----------------------------------------------------------------

              Electrostatic Properties (Atomic Units)

 -----------------------------------------------------------------
    Center     Electric         -------- Electric Field --------
               Potential          X             Y             Z
 -----------------------------------------------------------------
    1 Atom    -14.742244
    2 Atom    -14.709487
    3 Atom    -14.770111
    4 Atom    -14.752641
    5 Atom    -59.222297
    6 Atom     -1.088133
    7 Atom     -1.082853
    8 Atom    -14.742244
    9 Atom    -14.709487
   10 Atom    -59.222297
   11 Atom    -14.770111
   12 Atom    -14.752641
   13 Atom     -1.088133
   14 Atom     -1.082853
   15 Atom    -22.330733
   16 Atom    -22.330733
   17 Atom     -0.961669
   18 Atom     -0.961669
 -----------------------------------------------------------------
 Calling FoFJK, ICntrl=      2127 FMM=F ISym2X=0 I1Cent= 0 IOpClX= 0 NMat=1 NMatS=1 NMatT=0.
 ***** Axes restored to original set *****
 -------------------------------------------------------------------
 Center     Atomic                   Forces (Hartrees/Bohr)
 Number     Number              X              Y              Z
 -------------------------------------------------------------------
      1        6          -0.003388797    0.001551345   -0.000004547
      2        6          -0.003355385   -0.003415045    0.000006462
      3        6           0.002295015    0.000035455   -0.000000309
      4        6          -0.000688849    0.000763910   -0.000003631
      5       16          -0.000013051   -0.000736139    0.000004854
      6        1          -0.001471147    0.001622156    0.000000457
      7        1           0.000003453    0.000016082    0.000000269
      8        6           0.003388797   -0.001551345   -0.000004399
      9        6           0.003355386    0.003415045    0.000006205
     10       16           0.000013051    0.000736139    0.000004863
     11        6          -0.002295016   -0.000035455   -0.000000259
     12        6           0.000688849   -0.000763910   -0.000003658
     13        1           0.001471146   -0.001622155    0.000000442
     14        1          -0.000003453   -0.000016082    0.000000255
     15        8           0.008659438    0.010786528   -0.000005727
     16        8          -0.008659435   -0.010786530   -0.000005264
     17        1           0.003051286    0.011073899    0.000001876
     18        1          -0.003051290   -0.011073897    0.000002111
 -------------------------------------------------------------------
 Cartesian Forces:  Max     0.011073899 RMS     0.003710610

 GradGradGradGradGradGradGradGradGradGradGradGradGradGradGradGradGradGrad
 Berny optimization.
 FormGI is forming the generalized inverse of G from B-inverse, IUseBI=4.
 Internal  Forces:  Max     0.020835401 RMS     0.003351157
 Search for a local minimum.
 Step number   1 out of a maximum of   97
 All quantities printed in internal units (Hartrees-Bohrs-Radians)
 Mixed Optimization -- RFO/linear search
 Second derivative matrix not updated -- first step.
 ITU=  0
     Eigenvalues ---    0.01511   0.01609   0.01609   0.01688   0.01688
     Eigenvalues ---    0.01987   0.01987   0.02100   0.02100   0.02113
     Eigenvalues ---    0.02113   0.02173   0.02173   0.02275   0.02275
     Eigenvalues ---    0.16000   0.16000   0.16000   0.16000   0.16000
     Eigenvalues ---    0.16000   0.22532   0.22532   0.24749   0.24749
     Eigenvalues ---    0.25000   0.25000   0.25000   0.25000   0.29143
     Eigenvalues ---    0.29143   0.32171   0.32171   0.35945   0.35945
     Eigenvalues ---    0.36108   0.36108   0.39085   0.40753   0.40753
     Eigenvalues ---    0.45570   0.45570   0.50101   0.50101   0.52226
     Eigenvalues ---    0.52226   0.55473   0.55473
 RFO step:  Lambda=-5.61587218D-03 EMin= 1.51092729D-02
 Linear search not attempted -- first point.
 Iteration  1 RMS(Cart)=  0.03976830 RMS(Int)=  0.00240324
 Iteration  2 RMS(Cart)=  0.00243639 RMS(Int)=  0.00000321
 Iteration  3 RMS(Cart)=  0.00000463 RMS(Int)=  0.00000156
 Iteration  4 RMS(Cart)=  0.00000000 RMS(Int)=  0.00000156
 Variable       Old X    -DE/DX   Delta X   Delta X   Delta X     New X
                                 (Linear)    (Quad)   (Total)
    R1        2.62118  -0.00283   0.00000  -0.00609  -0.00609   2.61509
    R2        3.32335   0.00097   0.00000   0.00338   0.00338   3.32673
    R3        2.72816   0.00109   0.00000   0.00274   0.00274   2.73090
    R4        2.69003  -0.00227   0.00000  -0.00566  -0.00565   2.68438
    R5        2.57684  -0.00145   0.00000  -0.00275  -0.00275   2.57409
    R6        2.58219  -0.00111   0.00000  -0.00210  -0.00210   2.58009
    R7        2.04168   0.00166   0.00000   0.00455   0.00455   2.04623
    R8        3.26175   0.00028   0.00000   0.00125   0.00125   3.26299
    R9        2.03912  -0.00002   0.00000  -0.00004  -0.00004   2.03908
   R10        2.62118  -0.00283   0.00000  -0.00609  -0.00609   2.61509
   R11        3.32335   0.00097   0.00000   0.00338   0.00338   3.32673
   R12        2.69003  -0.00227   0.00000  -0.00566  -0.00565   2.68438
   R13        2.57684  -0.00145   0.00000  -0.00275  -0.00275   2.57409
   R14        3.26175   0.00028   0.00000   0.00125   0.00125   3.26299
   R15        2.58219  -0.00111   0.00000  -0.00210  -0.00210   2.58009
   R16        2.04168   0.00166   0.00000   0.00455   0.00455   2.04623
   R17        2.03912  -0.00002   0.00000  -0.00004  -0.00004   2.03908
   R18        1.81414  -0.00010   0.00000  -0.00018  -0.00018   1.81395
   R19        1.81414  -0.00010   0.00000  -0.00018  -0.00018   1.81395
    A1        1.90639  -0.00092   0.00000  -0.00391  -0.00390   1.90248
    A2        2.23296   0.00061   0.00000   0.00252   0.00252   2.23548
    A3        2.14384   0.00032   0.00000   0.00139   0.00139   2.14522
    A4        1.99480   0.00157   0.00000   0.00521   0.00522   2.00002
    A5        2.08497   0.00264   0.00000   0.01080   0.01080   2.09577
    A6        2.20341  -0.00421   0.00000  -0.01602  -0.01602   2.18740
    A7        1.95572   0.00021   0.00000   0.00041   0.00042   1.95614
    A8        2.17384  -0.00156   0.00000  -0.00901  -0.00901   2.16483
    A9        2.15362   0.00135   0.00000   0.00860   0.00859   2.16221
   A10        1.96177  -0.00064   0.00000  -0.00223  -0.00223   1.95954
   A11        2.23094   0.00031   0.00000   0.00108   0.00108   2.23202
   A12        2.09048   0.00033   0.00000   0.00115   0.00115   2.09163
   A13        1.60610  -0.00022   0.00000   0.00051   0.00050   1.60660
   A14        2.23296   0.00061   0.00000   0.00252   0.00252   2.23548
   A15        2.14384   0.00032   0.00000   0.00139   0.00139   2.14522
   A16        1.90639  -0.00092   0.00000  -0.00391  -0.00390   1.90248
   A17        1.99480   0.00157   0.00000   0.00521   0.00522   2.00002
   A18        2.08497   0.00264   0.00000   0.01080   0.01080   2.09577
   A19        2.20341  -0.00421   0.00000  -0.01602  -0.01602   2.18740
   A20        1.60610  -0.00022   0.00000   0.00051   0.00050   1.60660
   A21        1.95572   0.00021   0.00000   0.00041   0.00042   1.95614
   A22        2.17384  -0.00156   0.00000  -0.00901  -0.00901   2.16483
   A23        2.15362   0.00135   0.00000   0.00860   0.00859   2.16221
   A24        1.96177  -0.00064   0.00000  -0.00223  -0.00223   1.95954
   A25        2.09048   0.00033   0.00000   0.00115   0.00115   2.09163
   A26        2.23094   0.00031   0.00000   0.00108   0.00108   2.23202
   A27        2.05933  -0.02084   0.00000  -0.12581  -0.12581   1.93352
   A28        2.05933  -0.02084   0.00000  -0.12581  -0.12581   1.93352
    D1        0.00007  -0.00000   0.00000  -0.00008  -0.00008  -0.00001
    D2       -3.14152  -0.00000   0.00000  -0.00005  -0.00005  -3.14157
    D3       -3.14157  -0.00000   0.00000  -0.00003  -0.00003   3.14159
    D4        0.00003   0.00000   0.00000   0.00001   0.00001   0.00004
    D5       -0.00007   0.00000   0.00000   0.00010   0.00010   0.00002
    D6        3.14156   0.00000   0.00000   0.00004   0.00004  -3.14158
    D7        3.14148  -0.00000   0.00000  -0.00002  -0.00002   3.14146
    D8       -0.00016   0.00000   0.00000   0.00005   0.00005  -0.00011
    D9       -0.00016   0.00000   0.00000   0.00005   0.00005  -0.00012
   D10        3.14138   0.00000   0.00000   0.00011   0.00011   3.14149
   D11       -0.00003   0.00000   0.00000   0.00002   0.00002  -0.00001
   D12        3.14157   0.00000   0.00000   0.00003   0.00003  -3.14158
   D13        3.14156  -0.00000   0.00000  -0.00002  -0.00002   3.14154
   D14       -0.00002  -0.00000   0.00000  -0.00001  -0.00001  -0.00003
   D15       -3.14122  -0.00000   0.00000  -0.00002  -0.00002  -3.14123
   D16        0.00037   0.00000   0.00000   0.00003   0.00003   0.00040
   D17       -0.00003   0.00000   0.00000   0.00006   0.00006   0.00003
   D18       -3.14157  -0.00000   0.00000  -0.00001  -0.00001  -3.14158
   D19        3.14155   0.00000   0.00000   0.00005   0.00005  -3.14158
   D20        0.00001  -0.00000   0.00000  -0.00002  -0.00002  -0.00001
   D21        0.00006  -0.00000   0.00000  -0.00009  -0.00009  -0.00003
   D22       -3.14158  -0.00000   0.00000  -0.00003  -0.00003   3.14158
   D23       -3.14156  -0.00000   0.00000  -0.00003  -0.00003   3.14159
   D24        0.00002   0.00000   0.00000   0.00001   0.00001   0.00004
   D25        0.00007  -0.00000   0.00000  -0.00008  -0.00008  -0.00001
   D26       -3.14152  -0.00000   0.00000  -0.00005  -0.00004  -3.14157
   D27        3.14156   0.00000   0.00000   0.00005   0.00005  -3.14158
   D28       -0.00007   0.00000   0.00000   0.00010   0.00010   0.00003
   D29       -0.00003   0.00000   0.00000   0.00002   0.00002  -0.00001
   D30        3.14157   0.00000   0.00000   0.00003   0.00003  -3.14158
   D31        3.14157  -0.00000   0.00000  -0.00002  -0.00002   3.14154
   D32       -0.00002  -0.00000   0.00000  -0.00001  -0.00001  -0.00003
   D33       -3.14125  -0.00000   0.00000  -0.00002  -0.00002  -3.14126
   D34        0.00034   0.00000   0.00000   0.00003   0.00003   0.00037
   D35        0.00006  -0.00000   0.00000  -0.00009  -0.00009  -0.00003
   D36       -3.14158  -0.00000   0.00000  -0.00003  -0.00003   3.14158
   D37       -0.00003   0.00000   0.00000   0.00006   0.00006   0.00003
   D38       -3.14157  -0.00000   0.00000  -0.00001  -0.00001  -3.14158
   D39        3.14156   0.00000   0.00000   0.00005   0.00005  -3.14158
   D40        0.00001  -0.00000   0.00000  -0.00002  -0.00002  -0.00001
         Item               Value     Threshold  Converged?
 Maximum Force            0.020835     0.000450     NO 
 RMS     Force            0.003351     0.000300     NO 
 Maximum Displacement     0.230732     0.001800     NO 
 RMS     Displacement     0.039981     0.001200     NO 
 Predicted change in Energy=-2.900796D-03
 GradGradGradGradGradGradGradGradGradGradGradGradGradGradGradGradGradGrad

                          Input orientation:                          
 ---------------------------------------------------------------------
 Center     Atomic      Atomic             Coordinates (Angstroms)
 Number     Number       Type             X           Y           Z
 ---------------------------------------------------------------------
      1          6           0       -0.596653   -0.407560   -0.000078
      2          6           0       -1.915868    0.010423   -0.000012
      3          6           0       -2.869560   -1.042347   -0.000033
      4          6           0       -2.276437   -2.272112   -0.000132
      5         16           0       -0.552910   -2.167447   -0.000150
      6          1           0       -3.941478   -0.889079    0.000003
      7          1           0       -2.755644   -3.238898   -0.000178
      8          6           0        0.596653    0.407560   -0.000077
      9          6           0        1.915868   -0.010423   -0.000004
     10         16           0        0.552910    2.167447   -0.000155
     11          6           0        2.869560    1.042347   -0.000026
     12          6           0        2.276437    2.272112   -0.000132
     13          1           0        3.941478    0.889079    0.000017
     14          1           0        2.755644    3.238898   -0.000180
     15          8           0       -2.210653    1.340290    0.000021
     16          8           0        2.210653   -1.340290    0.000038
     17          1           0        3.160539   -1.478598    0.000383
     18          1           0       -3.160539    1.478598    0.000390
 ---------------------------------------------------------------------
                    Distance matrix (angstroms):
                    1          2          3          4          5
     1  C    0.000000
     2  C    1.383848   0.000000
     3  C    2.359885   1.420512   0.000000
     4  C    2.509627   2.310839   1.365326   0.000000
     5  S    1.760430   2.569196   2.575406   1.726702   0.000000
     6  H    3.379307   2.216349   1.082821   2.164519   3.621687
     7  H    3.560578   3.356086   2.199503   1.079034   2.449499
     8  C    1.445130   2.543714   3.757242   3.928777   2.819957
     9  C    2.543714   3.831792   4.895425   4.763471   3.278356
    10  S    2.819957   3.278356   4.692130   5.264493   4.473717
    11  C    3.757242   4.895425   6.106017   6.121023   4.692130
    12  C    3.928777   4.763471   6.121023   6.432623   5.264493
    13  H    4.719736   5.922883   7.079594   6.975357   5.435244
    14  H    4.953237   5.678563   7.069087   7.462779   6.338383
    15  O    2.379070   1.362147   2.472068   3.613001   3.879733
    16  O    2.958202   4.341958   5.088942   4.582824   2.884696
    17  H    3.906868   5.290283   6.045859   5.494577   3.776800
    18  H    3.182939   1.924771   2.537683   3.853499   4.482563
                    6          7          8          9         10
     6  H    0.000000
     7  H    2.632082   0.000000
     8  C    4.719736   4.953237   0.000000
     9  C    5.922883   5.678563   1.383848   0.000000
    10  S    5.435244   6.338383   1.760430   2.569196   0.000000
    11  C    7.079594   7.069087   2.359885   1.420512   2.575406
    12  C    6.975357   7.462779   2.509627   2.310839   1.726702
    13  H    8.081018   7.867124   3.379307   2.216349   3.621687
    14  H    7.867124   8.505066   3.560578   3.356086   2.449499
    15  O    2.822382   4.611505   2.958202   4.341958   2.884696
    16  O    6.168656   5.316843   2.379070   1.362147   3.879733
    17  H    7.126443   6.172510   3.182939   1.924771   4.482563
    18  H    2.493142   4.734840   3.906868   5.290283   3.776800
                   11         12         13         14         15
    11  C    0.000000
    12  C    1.365326   0.000000
    13  H    1.082821   2.164519   0.000000
    14  H    2.199503   1.079034   2.632082   0.000000
    15  O    5.088942   4.582824   6.168656   5.316843   0.000000
    16  O    2.472068   3.613001   2.822382   4.611505   5.170441
    17  H    2.537683   3.853499   2.493142   4.734840   6.065957
    18  H    6.045859   5.494577   7.126443   6.172510   0.959902
                   16         17         18
    16  O    0.000000
    17  H    0.959902   0.000000
    18  H    6.065957   6.978613   0.000000
 Stoichiometry    C8H6O2S2
 Framework group  C1[X(C8H6O2S2)]
 Deg. of freedom    48
 Full point group                 C1      NOp   1
 Largest Abelian subgroup         C1      NOp   1
 Largest concise Abelian subgroup C1      NOp   1
                         Standard orientation:                         
 ---------------------------------------------------------------------
 Center     Atomic      Atomic             Coordinates (Angstroms)
 Number     Number       Type             X           Y           Z
 ---------------------------------------------------------------------
      1          6           0        0.722551   -0.004545   -0.000010
      2          6           0        1.569253   -1.099137    0.000056
      3          6           0        2.952626   -0.776441    0.000035
      4          6           0        3.164991    0.572268   -0.000064
      5         16           0        1.688365    1.467296   -0.000082
      6          1           0        3.746690   -1.512623    0.000071
      7          1           0        4.109308    1.094361   -0.000111
      8          6           0       -0.722551    0.004545   -0.000009
      9          6           0       -1.569253    1.099137    0.000064
     10         16           0       -1.688365   -1.467296   -0.000087
     11          6           0       -2.952626    0.776441    0.000042
     12          6           0       -3.164991   -0.572268   -0.000064
     13          1           0       -3.746690    1.512623    0.000085
     14          1           0       -4.109308   -1.094361   -0.000112
     15          8           0        1.054620   -2.360327    0.000089
     16          8           0       -1.054620    2.360327    0.000106
     17          1           0       -1.756868    3.014743    0.000451
     18          1           0        1.756868   -3.014743    0.000458
 ---------------------------------------------------------------------
 Rotational constants (GHZ):           1.2886783           0.6254104           0.4210635
 Standard basis: 6-311+G(d,p) (5D, 7F)
 There are   328 symmetry adapted cartesian basis functions of A   symmetry.
 There are   316 symmetry adapted basis functions of A   symmetry.
   316 basis functions,   508 primitive gaussians,   328 cartesian basis functions
    51 alpha electrons       51 beta electrons
       nuclear repulsion energy       870.7738952977 Hartrees.
 NAtoms=   18 NActive=   18 NUniq=   18 SFac= 1.00D+00 NAtFMM=   60 NAOKFM=F Big=F
 Integral buffers will be    131072 words long.
 Raffenetti 2 integral format.
 Two-electron integral symmetry is turned on.
 One-electron integrals computed using PRISM.
 NBasis=   316 RedAO= T EigKep=  1.73D-06  NBF=   316
 NBsUse=   315 1.00D-06 EigRej=  6.80D-07 NBFU=   315
 Initial guess from the checkpoint file:  "gT2_innerdihscan.chk"
 B after Tr=    -0.000000   -0.000000    0.000000
         Rot=    0.999995   -0.000000   -0.000000   -0.003274 Ang=  -0.38 deg.
 ExpMin= 4.05D-02 ExpMax= 9.34D+04 ExpMxC= 3.17D+03 IAcc=2 IRadAn=         4 AccDes= 0.00D+00
 Harris functional with IExCor=  402 and IRadAn=       4 diagonalized for initial guess.
 HarFok:  IExCor=  402 AccDes= 0.00D+00 IRadAn=         4 IDoV= 1 UseB2=F ITyADJ=14
 ICtDFT=  3500011 ScaDFX=  1.000000  1.000000  1.000000  1.000000
 FoFCou: FMM=F IPFlag=           0 FMFlag=      100000 FMFlg1=           0
         NFxFlg=           0 DoJE=T BraDBF=F KetDBF=T FulRan=T
         wScrn=  0.000000 ICntrl=       500 IOpCl=  0 I1Cent=   200000004 NGrid=           0
         NMat0=    1 NMatS0=      1 NMatT0=    0 NMatD0=    1 NMtDS0=    0 NMtDT0=    0
 Petite list used in FoFCou.
 Requested convergence on RMS density matrix=1.00D-08 within 128 cycles.
 Requested convergence on MAX density matrix=1.00D-06.
 Requested convergence on             energy=1.00D-06.
 No special actions if energy rises.
 SCF Done:  E(RB3LYP) =  -1255.43236759     A.U. after   12 cycles
            NFock= 12  Conv=0.61D-08     -V/T= 2.0023
 Calling FoFJK, ICntrl=      2127 FMM=F ISym2X=0 I1Cent= 0 IOpClX= 0 NMat=1 NMatS=1 NMatT=0.
 ***** Axes restored to original set *****
 -------------------------------------------------------------------
 Center     Atomic                   Forces (Hartrees/Bohr)
 Number     Number              X              Y              Z
 -------------------------------------------------------------------
      1        6          -0.001366946   -0.000109992    0.000002409
      2        6           0.003832808   -0.003750644   -0.000001161
      3        6           0.000181753   -0.000399553   -0.000001656
      4        6          -0.000310252   -0.000131782    0.000003000
      5       16           0.000344779   -0.000674269   -0.000002935
      6        1          -0.000257790    0.000444465   -0.000000470
      7        1           0.000142358   -0.000029735    0.000000639
      8        6           0.001366946    0.000109993    0.000002494
      9        6          -0.003832808    0.003750644   -0.000001237
     10       16          -0.000344779    0.000674269   -0.000002985
     11        6          -0.000181753    0.000399553   -0.000001658
     12        6           0.000310252    0.000131782    0.000003005
     13        1           0.000257790   -0.000444465   -0.000000467
     14        1          -0.000142358    0.000029734    0.000000652
     15        8          -0.000614295    0.005708781   -0.000000448
     16        8           0.000614295   -0.005708782   -0.000000319
     17        1           0.001961805    0.000522086    0.000000530
     18        1          -0.001961805   -0.000522086    0.000000607
 -------------------------------------------------------------------
 Cartesian Forces:  Max     0.005708782 RMS     0.001597361

 GradGradGradGradGradGradGradGradGradGradGradGradGradGradGradGradGradGrad
 Berny optimization.
 Using GEDIIS/GDIIS optimizer.
 FormGI is forming the generalized inverse of G from B-inverse, IUseBI=4.
 Internal  Forces:  Max     0.005622490 RMS     0.001102691
 Search for a local minimum.
 Step number   2 out of a maximum of   97
 All quantities printed in internal units (Hartrees-Bohrs-Radians)
 Mixed Optimization -- RFO/linear search
 Update second derivatives using D2CorX and points    1    2
 DE= -3.13D-03 DEPred=-2.90D-03 R= 1.08D+00
 TightC=F SS=  1.41D+00  RLast= 1.82D-01 DXNew= 5.0454D-01 5.4551D-01
 Trust test= 1.08D+00 RLast= 1.82D-01 DXMaxT set to 5.05D-01
 ITU=  1  0
 Use linear search instead of GDIIS.
     Eigenvalues ---    0.01511   0.01609   0.01609   0.01688   0.01688
     Eigenvalues ---    0.01990   0.01990   0.02100   0.02100   0.02115
     Eigenvalues ---    0.02115   0.02173   0.02173   0.02277   0.02277
     Eigenvalues ---    0.14279   0.16000   0.16000   0.16000   0.16000
     Eigenvalues ---    0.16073   0.22532   0.22556   0.24578   0.24748
     Eigenvalues ---    0.24996   0.25000   0.25000   0.25315   0.29121
     Eigenvalues ---    0.29143   0.32170   0.32174   0.35918   0.35945
     Eigenvalues ---    0.36108   0.36108   0.39098   0.40750   0.40813
     Eigenvalues ---    0.45504   0.45576   0.50063   0.50096   0.52226
     Eigenvalues ---    0.54305   0.55473   0.56052
 RFO step:  Lambda=-2.85869004D-04 EMin= 1.51092726D-02
 Quartic linear search produced a step of  0.08333.
 Iteration  1 RMS(Cart)=  0.00932785 RMS(Int)=  0.00008861
 Iteration  2 RMS(Cart)=  0.00009226 RMS(Int)=  0.00000019
 Iteration  3 RMS(Cart)=  0.00000001 RMS(Int)=  0.00000019
 Variable       Old X    -DE/DX   Delta X   Delta X   Delta X     New X
                                 (Linear)    (Quad)   (Total)
    R1        2.61509  -0.00051  -0.00051  -0.00098  -0.00149   2.61361
    R2        3.32673   0.00064   0.00028   0.00221   0.00249   3.32922
    R3        2.73090  -0.00030   0.00023  -0.00092  -0.00069   2.73021
    R4        2.68438   0.00033  -0.00047   0.00102   0.00055   2.68492
    R5        2.57409   0.00562  -0.00023   0.01175   0.01152   2.58561
    R6        2.58009   0.00008  -0.00018   0.00026   0.00008   2.58017
    R7        2.04623   0.00032   0.00038   0.00079   0.00117   2.04740
    R8        3.26299  -0.00007   0.00010  -0.00022  -0.00012   3.26288
    R9        2.03908  -0.00004  -0.00000  -0.00011  -0.00011   2.03897
   R10        2.61509  -0.00051  -0.00051  -0.00098  -0.00149   2.61361
   R11        3.32673   0.00064   0.00028   0.00221   0.00249   3.32922
   R12        2.68438   0.00033  -0.00047   0.00102   0.00055   2.68492
   R13        2.57409   0.00562  -0.00023   0.01175   0.01152   2.58561
   R14        3.26299  -0.00007   0.00010  -0.00022  -0.00012   3.26288
   R15        2.58009   0.00008  -0.00018   0.00026   0.00008   2.58017
   R16        2.04623   0.00032   0.00038   0.00079   0.00117   2.04740
   R17        2.03908  -0.00004  -0.00000  -0.00011  -0.00011   2.03897
   R18        1.81395   0.00187  -0.00002   0.00365   0.00363   1.81759
   R19        1.81395   0.00187  -0.00002   0.00365   0.00363   1.81759
    A1        1.90248   0.00051  -0.00033   0.00227   0.00194   1.90442
    A2        2.23548   0.00005   0.00021   0.00018   0.00039   2.23587
    A3        2.14522  -0.00057   0.00012  -0.00245  -0.00233   2.14289
    A4        2.00002  -0.00064   0.00043  -0.00315  -0.00271   1.99731
    A5        2.09577   0.00284   0.00090   0.01193   0.01283   2.10860
    A6        2.18740  -0.00219  -0.00133  -0.00878  -0.01012   2.17728
    A7        1.95614   0.00053   0.00003   0.00252   0.00256   1.95870
    A8        2.16483  -0.00068  -0.00075  -0.00367  -0.00442   2.16041
    A9        2.16221   0.00015   0.00072   0.00115   0.00187   2.16408
   A10        1.95954  -0.00017  -0.00019  -0.00068  -0.00086   1.95867
   A11        2.23202   0.00023   0.00009   0.00130   0.00139   2.23342
   A12        2.09163  -0.00006   0.00010  -0.00063  -0.00053   2.09110
   A13        1.60660  -0.00023   0.00004  -0.00097  -0.00092   1.60567
   A14        2.23548   0.00005   0.00021   0.00018   0.00039   2.23587
   A15        2.14522  -0.00057   0.00012  -0.00245  -0.00233   2.14289
   A16        1.90248   0.00051  -0.00033   0.00227   0.00194   1.90442
   A17        2.00002  -0.00064   0.00043  -0.00315  -0.00271   1.99731
   A18        2.09577   0.00284   0.00090   0.01193   0.01283   2.10860
   A19        2.18740  -0.00219  -0.00133  -0.00878  -0.01012   2.17728
   A20        1.60660  -0.00023   0.00004  -0.00097  -0.00092   1.60567
   A21        1.95614   0.00053   0.00003   0.00252   0.00256   1.95870
   A22        2.16483  -0.00068  -0.00075  -0.00367  -0.00442   2.16041
   A23        2.16221   0.00015   0.00072   0.00115   0.00187   2.16408
   A24        1.95954  -0.00017  -0.00019  -0.00068  -0.00086   1.95867
   A25        2.09163  -0.00006   0.00010  -0.00063  -0.00053   2.09110
   A26        2.23202   0.00023   0.00009   0.00130   0.00139   2.23342
   A27        1.93352  -0.00145  -0.01048  -0.00426  -0.01474   1.91878
   A28        1.93352  -0.00145  -0.01048  -0.00426  -0.01474   1.91878
    D1       -0.00001   0.00000  -0.00001   0.00007   0.00007   0.00006
    D2       -3.14157   0.00000  -0.00000   0.00004   0.00004  -3.14153
    D3        3.14159   0.00000  -0.00000   0.00004   0.00003  -3.14156
    D4        0.00004   0.00000   0.00000   0.00001   0.00001   0.00004
    D5        0.00002  -0.00000   0.00001  -0.00011  -0.00011  -0.00008
    D6       -3.14158  -0.00000   0.00000  -0.00008  -0.00007   3.14153
    D7        3.14146   0.00000  -0.00000   0.00008   0.00007   3.14154
    D8       -0.00011   0.00000   0.00000   0.00003   0.00003  -0.00008
    D9       -0.00012   0.00000   0.00000   0.00003   0.00004  -0.00008
   D10        3.14149  -0.00000   0.00001  -0.00001  -0.00000   3.14149
   D11       -0.00001   0.00000   0.00000   0.00002   0.00002   0.00001
   D12       -3.14158  -0.00000   0.00000  -0.00002  -0.00002   3.14158
   D13        3.14154   0.00000  -0.00000   0.00005   0.00005   3.14159
   D14       -0.00003   0.00000  -0.00000   0.00001   0.00001  -0.00003
   D15       -3.14123  -0.00000  -0.00000   0.00001   0.00001  -3.14123
   D16        0.00040  -0.00000   0.00000  -0.00003  -0.00002   0.00038
   D17        0.00003  -0.00000   0.00000  -0.00011  -0.00011  -0.00007
   D18       -3.14158  -0.00000  -0.00000  -0.00003  -0.00003   3.14157
   D19       -3.14158  -0.00000   0.00000  -0.00006  -0.00006   3.14154
   D20       -0.00001   0.00000  -0.00000   0.00002   0.00001   0.00000
   D21       -0.00003   0.00000  -0.00001   0.00013   0.00012   0.00009
   D22        3.14158   0.00000  -0.00000   0.00006   0.00006  -3.14155
   D23        3.14159   0.00000  -0.00000   0.00004   0.00003  -3.14156
   D24        0.00004   0.00000   0.00000   0.00001   0.00001   0.00004
   D25       -0.00001   0.00000  -0.00001   0.00008   0.00007   0.00006
   D26       -3.14157   0.00000  -0.00000   0.00005   0.00004  -3.14153
   D27       -3.14158  -0.00000   0.00000  -0.00008  -0.00007   3.14153
   D28        0.00003  -0.00000   0.00001  -0.00012  -0.00011  -0.00008
   D29       -0.00001   0.00000   0.00000   0.00002   0.00002   0.00001
   D30       -3.14158  -0.00000   0.00000  -0.00003  -0.00002   3.14158
   D31        3.14154   0.00000  -0.00000   0.00005   0.00005  -3.14159
   D32       -0.00003   0.00000  -0.00000   0.00001   0.00001  -0.00002
   D33       -3.14126  -0.00000  -0.00000   0.00001   0.00001  -3.14126
   D34        0.00037  -0.00000   0.00000  -0.00003  -0.00002   0.00035
   D35       -0.00003   0.00000  -0.00001   0.00013   0.00012   0.00009
   D36        3.14158   0.00000  -0.00000   0.00006   0.00006  -3.14155
   D37        0.00003  -0.00000   0.00000  -0.00011  -0.00011  -0.00007
   D38       -3.14158  -0.00000  -0.00000  -0.00003  -0.00003   3.14157
   D39       -3.14158  -0.00000   0.00000  -0.00007  -0.00006   3.14154
   D40       -0.00001   0.00000  -0.00000   0.00002   0.00001   0.00001
         Item               Value     Threshold  Converged?
 Maximum Force            0.005622     0.000450     NO 
 RMS     Force            0.001103     0.000300     NO 
 Maximum Displacement     0.037079     0.001800     NO 
 RMS     Displacement     0.009347     0.001200     NO 
 Predicted change in Energy=-1.673120D-04
 GradGradGradGradGradGradGradGradGradGradGradGradGradGradGradGradGradGrad

                          Input orientation:                          
 ---------------------------------------------------------------------
 Center     Atomic      Atomic             Coordinates (Angstroms)
 Number     Number       Type             X           Y           Z
 ---------------------------------------------------------------------
      1          6           0       -0.597617   -0.405820   -0.000092
      2          6           0       -1.915097    0.015023   -0.000066
      3          6           0       -2.868604   -1.038305   -0.000032
      4          6           0       -2.278164   -2.269408   -0.000019
      5         16           0       -0.554560   -2.167043   -0.000166
      6          1           0       -3.940503   -0.880595    0.000003
      7          1           0       -2.758120   -3.235756    0.000024
      8          6           0        0.597617    0.405820   -0.000091
      9          6           0        1.915097   -0.015023   -0.000058
     10         16           0        0.554560    2.167043   -0.000172
     11          6           0        2.868604    1.038305   -0.000024
     12          6           0        2.278164    2.269408   -0.000018
     13          1           0        3.940503    0.880595    0.000017
     14          1           0        2.758120    3.235756    0.000023
     15          8           0       -2.225180    1.347668   -0.000088
     16          8           0        2.225180   -1.347668   -0.000070
     17          1           0        3.180161   -1.462208    0.000259
     18          1           0       -3.180161    1.462208    0.000267
 ---------------------------------------------------------------------
                    Distance matrix (angstroms):
                    1          2          3          4          5
     1  C    0.000000
     2  C    1.383062   0.000000
     3  C    2.357417   1.420801   0.000000
     4  C    2.509422   2.313102   1.365369   0.000000
     5  S    1.761749   2.571473   2.574654   1.726640   0.000000
     6  H    3.376432   2.214588   1.083439   2.166142   3.622093
     7  H    3.560381   3.358310   2.200226   1.078975   2.449045
     8  C    1.444765   2.542922   3.755021   3.927717   2.819067
     9  C    2.542922   3.830311   4.891921   4.760849   3.275729
    10  S    2.819067   3.275729   4.689596   5.263689   4.473752
    11  C    3.755021   4.891921   6.101464   6.118021   4.689596
    12  C    3.927717   4.760849   6.118021   6.431249   5.263689
    13  H    4.716926   5.919228   7.074327   6.970963   5.430809
    14  H    4.951974   5.675569   7.065948   7.461299   6.337515
    15  O    2.392422   1.368246   2.471207   3.617464   3.891551
    16  O    2.975780   4.358764   5.103170   4.596707   2.897988
    17  H    3.922698   5.305079   6.063600   5.517688   3.800649
    18  H    3.187328   1.922169   2.519848   3.839083   4.479425
                    6          7          8          9         10
     6  H    0.000000
     7  H    2.635301   0.000000
     8  C    4.716926   4.951974   0.000000
     9  C    5.919228   5.675569   1.383062   0.000000
    10  S    5.430809   6.337515   1.761749   2.571473   0.000000
    11  C    7.074327   7.065948   2.357417   1.420801   2.574654
    12  C    6.970963   7.461299   2.509422   2.313102   1.726640
    13  H    8.075397   7.862308   3.376432   2.214588   3.622093
    14  H    7.862308   8.503492   3.560381   3.358310   2.449045
    15  O    2.812025   4.614304   2.975780   4.358764   2.897988
    16  O    6.183349   5.328993   2.392422   1.368246   3.891551
    17  H    7.144377   6.197471   3.187328   1.922169   4.479425
    18  H    2.463097   4.716883   3.922698   5.305079   3.800649
                   11         12         13         14         15
    11  C    0.000000
    12  C    1.365369   0.000000
    13  H    1.083439   2.166142   0.000000
    14  H    2.200226   1.078975   2.635301   0.000000
    15  O    5.103170   4.596707   6.183349   5.328993   0.000000
    16  O    2.471207   3.617464   2.812025   4.614304   5.202937
    17  H    2.519848   3.839083   2.463097   4.716883   6.092054
    18  H    6.063600   5.517688   7.144377   6.197471   0.961825
                   16         17         18
    16  O    0.000000
    17  H    0.961825   0.000000
    18  H    6.092054   7.000421   0.000000
 Stoichiometry    C8H6O2S2
 Framework group  C1[X(C8H6O2S2)]
 Deg. of freedom    48
 Full point group                 C1      NOp   1
 Largest Abelian subgroup         C1      NOp   1
 Largest concise Abelian subgroup C1      NOp   1
                         Standard orientation:                         
 ---------------------------------------------------------------------
 Center     Atomic      Atomic             Coordinates (Angstroms)
 Number     Number       Type             X           Y           Z
 ---------------------------------------------------------------------
      1          6           0        0.722374   -0.003387   -0.000009
      2          6           0        1.570774   -1.095669    0.000017
      3          6           0        2.952895   -0.766404    0.000051
      4          6           0        3.162370    0.582801    0.000064
      5         16           0        1.683110    1.473349   -0.000083
      6          1           0        3.747620   -1.502782    0.000087
      7          1           0        4.104781    1.108204    0.000107
      8          6           0       -0.722374    0.003387   -0.000008
      9          6           0       -1.570774    1.095669    0.000025
     10         16           0       -1.683110   -1.473349   -0.000089
     11          6           0       -2.952895    0.766404    0.000059
     12          6           0       -3.162370   -0.582801    0.000065
     13          1           0       -3.747620    1.502782    0.000100
     14          1           0       -4.104781   -1.108204    0.000106
     15          8           0        1.072667   -2.370026   -0.000004
     16          8           0       -1.072667    2.370026    0.000013
     17          1           0       -1.795395    3.004668    0.000343
     18          1           0        1.795395   -3.004668    0.000350
 ---------------------------------------------------------------------
 Rotational constants (GHZ):           1.2814269           0.6253624           0.4202647
 Standard basis: 6-311+G(d,p) (5D, 7F)
 There are   328 symmetry adapted cartesian basis functions of A   symmetry.
 There are   316 symmetry adapted basis functions of A   symmetry.
   316 basis functions,   508 primitive gaussians,   328 cartesian basis functions
    51 alpha electrons       51 beta electrons
       nuclear repulsion energy       869.9105280365 Hartrees.
 NAtoms=   18 NActive=   18 NUniq=   18 SFac= 1.00D+00 NAtFMM=   60 NAOKFM=F Big=F
 Integral buffers will be    131072 words long.
 Raffenetti 2 integral format.
 Two-electron integral symmetry is turned on.
 One-electron integrals computed using PRISM.
 NBasis=   316 RedAO= T EigKep=  1.73D-06  NBF=   316
 NBsUse=   315 1.00D-06 EigRej=  6.79D-07 NBFU=   315
 Initial guess from the checkpoint file:  "gT2_innerdihscan.chk"
 B after Tr=     0.000000    0.000000   -0.000000
         Rot=    0.999998   -0.000000    0.000000   -0.001878 Ang=  -0.22 deg.
 ExpMin= 4.05D-02 ExpMax= 9.34D+04 ExpMxC= 3.17D+03 IAcc=2 IRadAn=         4 AccDes= 0.00D+00
 Harris functional with IExCor=  402 and IRadAn=       4 diagonalized for initial guess.
 HarFok:  IExCor=  402 AccDes= 0.00D+00 IRadAn=         4 IDoV= 1 UseB2=F ITyADJ=14
 ICtDFT=  3500011 ScaDFX=  1.000000  1.000000  1.000000  1.000000
 FoFCou: FMM=F IPFlag=           0 FMFlag=      100000 FMFlg1=           0
         NFxFlg=           0 DoJE=T BraDBF=F KetDBF=T FulRan=T
         wScrn=  0.000000 ICntrl=       500 IOpCl=  0 I1Cent=   200000004 NGrid=           0
         NMat0=    1 NMatS0=      1 NMatT0=    0 NMatD0=    1 NMtDS0=    0 NMtDT0=    0
 Petite list used in FoFCou.
 Requested convergence on RMS density matrix=1.00D-08 within 128 cycles.
 Requested convergence on MAX density matrix=1.00D-06.
 Requested convergence on             energy=1.00D-06.
 No special actions if energy rises.
 SCF Done:  E(RB3LYP) =  -1255.43255130     A.U. after   11 cycles
            NFock= 11  Conv=0.85D-08     -V/T= 2.0023
 Calling FoFJK, ICntrl=      2127 FMM=F ISym2X=0 I1Cent= 0 IOpClX= 0 NMat=1 NMatS=1 NMatT=0.
 ***** Axes restored to original set *****
 -------------------------------------------------------------------
 Center     Atomic                   Forces (Hartrees/Bohr)
 Number     Number              X              Y              Z
 -------------------------------------------------------------------
      1        6          -0.001069370    0.000713521   -0.000004375
      2        6           0.001690355   -0.001573928    0.000000325
      3        6          -0.000322237   -0.000551361    0.000003739
      4        6          -0.000520975    0.000272828   -0.000005636
      5       16           0.000285463    0.000158072    0.000006471
      6        1           0.000023444    0.000048563    0.000000433
      7        1           0.000037700   -0.000009076   -0.000000935
      8        6           0.001069370   -0.000713521   -0.000004383
      9        6          -0.001690355    0.001573928    0.000000313
     10       16          -0.000285463   -0.000158072    0.000006549
     11        6           0.000322237    0.000551361    0.000003771
     12        6           0.000520975   -0.000272828   -0.000005709
     13        1          -0.000023444   -0.000048563    0.000000444
     14        1          -0.000037700    0.000009076   -0.000000941
     15        8          -0.000486714    0.001168599   -0.000000392
     16        8           0.000486714   -0.001168599   -0.000000355
     17        1           0.000018566   -0.000044332    0.000000333
     18        1          -0.000018566    0.000044332    0.000000349
 -------------------------------------------------------------------
 Cartesian Forces:  Max     0.001690355 RMS     0.000591818

 GradGradGradGradGradGradGradGradGradGradGradGradGradGradGradGradGradGrad
 Berny optimization.
 Using GEDIIS/GDIIS optimizer.
 FormGI is forming the generalized inverse of G from B-inverse, IUseBI=4.
 Internal  Forces:  Max     0.001297045 RMS     0.000275682
 Search for a local minimum.
 Step number   3 out of a maximum of   97
 All quantities printed in internal units (Hartrees-Bohrs-Radians)
 Mixed Optimization -- En-DIIS/RFO-DIIS
 Update second derivatives using D2CorX and points    1    2    3
 DE= -1.84D-04 DEPred=-1.67D-04 R= 1.10D+00
 TightC=F SS=  1.41D+00  RLast= 3.72D-02 DXNew= 8.4853D-01 1.1150D-01
 Trust test= 1.10D+00 RLast= 3.72D-02 DXMaxT set to 5.05D-01
 ITU=  1  1  0
 Use linear search instead of GDIIS.
     Eigenvalues ---    0.01511   0.01608   0.01608   0.01688   0.01688
     Eigenvalues ---    0.01992   0.01992   0.02101   0.02101   0.02116
     Eigenvalues ---    0.02116   0.02173   0.02173   0.02278   0.02278
     Eigenvalues ---    0.14567   0.16000   0.16000   0.16000   0.16000
     Eigenvalues ---    0.16163   0.22532   0.22537   0.23312   0.24749
     Eigenvalues ---    0.24984   0.25000   0.25000   0.26193   0.29142
     Eigenvalues ---    0.29203   0.32171   0.32317   0.35924   0.35945
     Eigenvalues ---    0.36108   0.36108   0.39130   0.40751   0.40887
     Eigenvalues ---    0.44595   0.45576   0.48422   0.50096   0.51957
     Eigenvalues ---    0.52226   0.55473   0.56029
 RFO step:  Lambda=-1.36413730D-05 EMin= 1.51092651D-02
 Quartic linear search produced a step of  0.13975.
 Iteration  1 RMS(Cart)=  0.00142880 RMS(Int)=  0.00000140
 Iteration  2 RMS(Cart)=  0.00000151 RMS(Int)=  0.00000010
 Iteration  3 RMS(Cart)=  0.00000000 RMS(Int)=  0.00000010
 Variable       Old X    -DE/DX   Delta X   Delta X   Delta X     New X
                                 (Linear)    (Quad)   (Total)
    R1        2.61361  -0.00080  -0.00021  -0.00185  -0.00206   2.61155
    R2        3.32922  -0.00005   0.00035  -0.00045  -0.00011   3.32912
    R3        2.73021   0.00016  -0.00010   0.00056   0.00046   2.73067
    R4        2.68492   0.00044   0.00008   0.00105   0.00112   2.68605
    R5        2.58561   0.00130   0.00161   0.00165   0.00326   2.58887
    R6        2.58017  -0.00042   0.00001  -0.00091  -0.00090   2.57927
[...]
      9          6           0       -1.571787    1.093831    0.000036
     10         16           0       -1.682051   -1.473811   -0.000002
     11          6           0       -2.954385    0.763999    0.000005
     12          6           0       -3.162928   -0.584867   -0.000114
     13          1           0       -3.749041    1.500485    0.000013
     14          1           0       -4.104659   -1.111451   -0.000191
     15          8           0        1.076324   -2.371067    0.000041
     16          8           0       -1.076324    2.371067    0.000059
     17          1           0       -1.801508    3.003059    0.000394
     18          1           0        1.801508   -3.003059    0.000401
 ---------------------------------------------------------------------
 Rotational constants (GHZ):           1.2811015           0.6250043           0.4200679

 **********************************************************************

            Population analysis using the SCF density.

 **********************************************************************

 Orbital symmetries:
       Occupied  (A) (A) (A) (A) (A) (A) (A) (A) (A) (A) (A) (A)
                 (A) (A) (A) (A) (A) (A) (A) (A) (A) (A) (A) (A)
                 (A) (A) (A) (A) (A) (A) (A) (A) (A) (A) (A) (A)
                 (A) (A) (A) (A) (A) (A) (A) (A) (A) (A) (A) (A)
                 (A) (A) (A)
       Virtual   (A) (A) (A) (A) (A) (A) (A) (A) (A) (A) (A) (A)
                 (A) (A) (A) (A) (A) (A) (A) (A) (A) (A) (A) (A)
                 (A) (A) (A) (A) (A) (A) (A) (A) (A) (A) (A) (A)
                 (A) (A) (A) (A) (A) (A) (A) (A) (A) (A) (A) (A)
                 (A) (A) (A) (A) (A) (A) (A) (A) (A) (A) (A) (A)
                 (A) (A) (A) (A) (A) (A) (A) (A) (A) (A) (A) (A)
                 (A) (A) (A) (A) (A) (A) (A) (A) (A) (A) (A) (A)
                 (A) (A) (A) (A) (A) (A) (A) (A) (A) (A) (A) (A)
                 (A) (A) (A) (A) (A) (A) (A) (A) (A) (A) (A) (A)
                 (A) (A) (A) (A) (A) (A) (A) (A) (A) (A) (A) (A)
                 (A) (A) (A) (A) (A) (A) (A) (A) (A) (A) (A) (A)
                 (A) (A) (A) (A) (A) (A) (A) (A) (A) (A) (A) (A)
                 (A) (A) (A) (A) (A) (A) (A) (A) (A) (A) (A) (A)
                 (A) (A) (A) (A) (A) (A) (A) (A) (A) (A) (A) (A)
                 (A) (A) (A) (A) (A) (A) (A) (A) (A) (A) (A) (A)
                 (A) (A) (A) (A) (A) (A) (A) (A) (A) (A) (A) (A)
                 (A) (A) (A) (A) (A) (A) (A) (A) (A) (A) (A) (A)
                 (A) (A) (A) (A) (A) (A) (A) (A) (A) (A) (A) (A)
                 (A) (A) (A) (A) (A) (A) (A) (A) (A) (A) (A) (A)
                 (A) (A) (A) (A) (A) (A) (A) (A) (A) (A) (A) (A)
                 (A) (A) (A) (A) (A) (A) (A) (A) (A) (A) (A) (A)
                 (A) (A) (A) (A) (A) (A) (A) (A) (A) (A) (A) (A)
 The electronic state is 1-A.
 Alpha  occ. eigenvalues --  -88.87441 -88.87441 -19.16383 -19.16382 -10.23777
 Alpha  occ. eigenvalues --  -10.23776 -10.20828 -10.20791 -10.20108 -10.20108
 Alpha  occ. eigenvalues --  -10.18249 -10.18248  -7.96001  -7.96001  -5.92316
 Alpha  occ. eigenvalues --   -5.92316  -5.91925  -5.91925  -5.91562  -5.91562
 Alpha  occ. eigenvalues --   -1.07374  -1.07298  -0.89114  -0.87409  -0.77239
 Alpha  occ. eigenvalues --   -0.73692  -0.72905  -0.70843  -0.61067  -0.60442
 Alpha  occ. eigenvalues --   -0.59263  -0.55619  -0.53589  -0.49120  -0.48091
 Alpha  occ. eigenvalues --   -0.47023  -0.43521  -0.43429  -0.42902  -0.41446
 Alpha  occ. eigenvalues --   -0.38340  -0.38203  -0.37626  -0.35285  -0.35061
 Alpha  occ. eigenvalues --   -0.34503  -0.33455  -0.28078  -0.24238  -0.24010
 Alpha  occ. eigenvalues --   -0.19172
 Alpha virt. eigenvalues --   -0.04188  -0.01570  -0.00639   0.00063   0.00827
 Alpha virt. eigenvalues --    0.00847   0.02965   0.03010   0.04003   0.04086
 Alpha virt. eigenvalues --    0.04623   0.05550   0.05808   0.05974   0.06342
 Alpha virt. eigenvalues --    0.06884   0.07408   0.08353   0.09063   0.09912
 Alpha virt. eigenvalues --    0.09930   0.10260   0.11474   0.11559   0.13042
 Alpha virt. eigenvalues --    0.13356   0.14055   0.14299   0.14363   0.14984
 Alpha virt. eigenvalues --    0.15326   0.15495   0.15693   0.16613   0.17218
 Alpha virt. eigenvalues --    0.17782   0.18023   0.18660   0.18816   0.18922
 Alpha virt. eigenvalues --    0.19516   0.19863   0.19965   0.20402   0.21604
 Alpha virt. eigenvalues --    0.21639   0.22751   0.23740   0.24898   0.25506
 Alpha virt. eigenvalues --    0.26095   0.26227   0.26898   0.27184   0.27538
 Alpha virt. eigenvalues --    0.28779   0.28810   0.29347   0.30510   0.30865
 Alpha virt. eigenvalues --    0.34095   0.34134   0.34931   0.35208   0.35586
 Alpha virt. eigenvalues --    0.36867   0.36868   0.37825   0.40927   0.42465
 Alpha virt. eigenvalues --    0.44420   0.45337   0.45768   0.46183   0.49515
 Alpha virt. eigenvalues --    0.49519   0.50321   0.51873   0.54775   0.54949
 Alpha virt. eigenvalues --    0.56488   0.56589   0.57301   0.57655   0.58417
 Alpha virt. eigenvalues --    0.59936   0.60524   0.60993   0.62300   0.62301
 Alpha virt. eigenvalues --    0.63709   0.65165   0.68178   0.69835   0.71322
 Alpha virt. eigenvalues --    0.72058   0.74188   0.74873   0.75178   0.75554
 Alpha virt. eigenvalues --    0.75944   0.77751   0.77865   0.78979   0.81767
 Alpha virt. eigenvalues --    0.81888   0.82305   0.84004   0.86365   0.86415
 Alpha virt. eigenvalues --    0.87357   0.88495   0.88636   0.90301   0.92572
 Alpha virt. eigenvalues --    0.95644   0.97154   0.99028   1.01139   1.01190
 Alpha virt. eigenvalues --    1.02081   1.03395   1.05042   1.05582   1.06680
 Alpha virt. eigenvalues --    1.06775   1.07312   1.07708   1.09343   1.13091
 Alpha virt. eigenvalues --    1.16378   1.16723   1.18367   1.23811   1.24227
 Alpha virt. eigenvalues --    1.25636   1.29560   1.32262   1.34908   1.35822
 Alpha virt. eigenvalues --    1.38930   1.40546   1.41429   1.44652   1.47102
 Alpha virt. eigenvalues --    1.51961   1.54062   1.55051   1.56802   1.59163
 Alpha virt. eigenvalues --    1.59939   1.61406   1.62617   1.65639   1.65931
 Alpha virt. eigenvalues --    1.66429   1.69203   1.73788   1.75373   1.76987
 Alpha virt. eigenvalues --    1.77387   1.78124   1.78825   1.79458   1.80126
 Alpha virt. eigenvalues --    1.85295   1.86887   1.88325   1.89506   1.92989
 Alpha virt. eigenvalues --    1.95915   1.96642   1.98774   2.01217   2.02543
 Alpha virt. eigenvalues --    2.02745   2.06332   2.06706   2.08643   2.10470
 Alpha virt. eigenvalues --    2.10568   2.10809   2.15854   2.15920   2.16353
 Alpha virt. eigenvalues --    2.16619   2.18768   2.20293   2.37926   2.40953
 Alpha virt. eigenvalues --    2.45085   2.50718   2.52721   2.54935   2.60898
 Alpha virt. eigenvalues --    2.62221   2.63816   2.64705   2.66460   2.67199
 Alpha virt. eigenvalues --    2.71145   2.72510   2.73224   2.74784   2.75567
 Alpha virt. eigenvalues --    2.78081   2.83625   2.91356   2.95156   2.97641
 Alpha virt. eigenvalues --    2.98086   2.98843   3.07964   3.08119   3.12626
 Alpha virt. eigenvalues --    3.13933   3.16758   3.17491   3.20364   3.23532
 Alpha virt. eigenvalues --    3.29133   3.30814   3.34327   3.34812   3.41791
 Alpha virt. eigenvalues --    3.47418   3.47749   3.50439   3.55927   3.74400
 Alpha virt. eigenvalues --    3.88153   3.89912   3.97700   4.07423   4.08266
 Alpha virt. eigenvalues --    4.18736   4.28658   4.57448   4.99149   4.99957
 Alpha virt. eigenvalues --    5.46743   5.47568   5.72052   5.75830   7.99262
 Alpha virt. eigenvalues --    8.00631  17.28786  17.29774  17.47018  17.49918
 Alpha virt. eigenvalues --   17.53246  17.58280  23.49250  23.69727  23.81402
 Alpha virt. eigenvalues --   23.84224  24.04648  24.05247  24.15700  24.16252
 Alpha virt. eigenvalues --   49.93496  49.94727 189.15496 189.17550
          Condensed to atoms (all electrons):
               1          2          3          4          5          6
     1  C    9.502651  -4.477580   1.306420  -0.864178   0.741614   0.008032
     2  C   -4.477580  18.472905  -6.853059   2.058411  -2.171217  -0.126640
     3  C    1.306420  -6.853059  12.573148  -1.173541   0.371501   0.416758
     4  C   -0.864178   2.058411  -1.173541   6.310795  -0.170696   0.036868
     5  S    0.741614  -2.171217   0.371501  -0.170696  17.076055   0.016546
     6  H    0.008032  -0.126640   0.416758   0.036868   0.016546   0.545588
     7  H    0.053096  -0.094156   0.094375   0.316371  -0.016853  -0.005141
     8  C    0.117682  -1.275958   0.096139  -0.220042   0.646816  -0.004580
     9  C   -1.275958   0.948756  -0.223049  -0.184859  -0.385947   0.000161
    10  S    0.646816  -0.385947  -0.029310   0.072851   0.143829   0.000282
    11  C    0.096140  -0.223049  -0.096163   0.025829  -0.029310   0.000070
    12  C   -0.220042  -0.184860   0.025829  -0.034167   0.072851   0.000026
    13  H   -0.004580   0.000161   0.000070   0.000026   0.000282   0.000000
    14  H    0.001467   0.004845   0.000309   0.000015  -0.000887   0.000000
    15  O   -0.037957  -0.171466   0.147628  -0.000928   0.043232  -0.004996
    16  O    0.003932   0.033665  -0.005916   0.016050  -0.055487   0.000030
    17  H    0.020609  -0.001565   0.003031  -0.003585   0.007552   0.000000
    18  H   -0.018940   0.351091  -0.329861   0.015258  -0.009156   0.003485
               7          8          9         10         11         12
     1  C    0.053096   0.117682  -1.275958   0.646816   0.096140  -0.220042
     2  C   -0.094156  -1.275958   0.948756  -0.385947  -0.223049  -0.184860
     3  C    0.094375   0.096139  -0.223049  -0.029310  -0.096163   0.025829
     4  C    0.316371  -0.220042  -0.184859   0.072851   0.025829  -0.034167
     5  S   -0.016853   0.646816  -0.385947   0.143829  -0.029310   0.072851
     6  H   -0.005141  -0.004580   0.000161   0.000282   0.000070   0.000026
     7  H    0.488486   0.001467   0.004845  -0.000887   0.000309   0.000015
     8  C    0.001467   9.502650  -4.477579   0.741614   1.306420  -0.864178
     9  C    0.004845  -4.477579  18.472905  -2.171217  -6.853060   2.058411
    10  S   -0.000887   0.741614  -2.171217  17.076055   0.371501  -0.170696
    11  C    0.000309   1.306420  -6.853060   0.371501  12.573148  -1.173541
    12  C    0.000015  -0.864178   2.058411  -0.170696  -1.173541   6.310795
    13  H    0.000000   0.008032  -0.126640   0.016546   0.416758   0.036868
    14  H    0.000000   0.053096  -0.094156  -0.016853   0.094375   0.316371
    15  O   -0.000305   0.003932   0.033665  -0.055487  -0.005916   0.016050
    16  O   -0.000038  -0.037957  -0.171466   0.043232   0.147628  -0.000928
    17  H   -0.000003  -0.018940   0.351091  -0.009156  -0.329861   0.015258
    18  H   -0.000020   0.020609  -0.001565   0.007552   0.003031  -0.003585
              13         14         15         16         17         18
     1  C   -0.004580   0.001467  -0.037957   0.003932   0.020609  -0.018940
     2  C    0.000161   0.004845  -0.171466   0.033665  -0.001565   0.351091
     3  C    0.000070   0.000309   0.147628  -0.005916   0.003031  -0.329861
     4  C    0.000026   0.000015  -0.000928   0.016050  -0.003585   0.015258
     5  S    0.000282  -0.000887   0.043232  -0.055487   0.007552  -0.009156
     6  H    0.000000   0.000000  -0.004996   0.000030   0.000000   0.003485
     7  H    0.000000   0.000000  -0.000305  -0.000038  -0.000003  -0.000020
     8  C    0.008032   0.053096   0.003932  -0.037957  -0.018940   0.020609
     9  C   -0.126640  -0.094156   0.033665  -0.171466   0.351091  -0.001565
    10  S    0.016546  -0.016853  -0.055487   0.043232  -0.009156   0.007552
    11  C    0.416758   0.094375  -0.005916   0.147628  -0.329861   0.003031
    12  C    0.036868   0.316371   0.016050  -0.000928   0.015258  -0.003585
    13  H    0.545588  -0.005141   0.000030  -0.004996   0.003485   0.000000
    14  H   -0.005141   0.488486  -0.000038  -0.000305  -0.000020  -0.000003
    15  O    0.000030  -0.000038   8.096015  -0.000960  -0.000047   0.161233
    16  O   -0.004996  -0.000305  -0.000960   8.096015   0.161233  -0.000047
    17  H    0.003485  -0.000020  -0.000047   0.161233   0.540117  -0.000000
    18  H    0.000000  -0.000003   0.161233  -0.000047  -0.000000   0.540117
 Mulliken charges:
               1
     1  C    0.400777
     2  C    0.095664
     3  C   -0.324309
     4  C   -0.200478
     5  S   -0.280724
     6  H    0.113512
     7  H    0.158439
     8  C    0.400777
     9  C    0.095664
    10  S   -0.280724
    11  C   -0.324309
    12  C   -0.200478
    13  H    0.113512
    14  H    0.158439
    15  O   -0.223682
    16  O   -0.223682
    17  H    0.260802
    18  H    0.260802
 Sum of Mulliken charges =  -0.00000
 Mulliken charges with hydrogens summed into heavy atoms:
               1
     1  C    0.400777
     2  C    0.095664
     3  C   -0.210797
     4  C   -0.042039
     5  S   -0.280724
     8  C    0.400777
     9  C    0.095664
    10  S   -0.280724
    11  C   -0.210797
    12  C   -0.042039
    15  O    0.037120
    16  O    0.037120
 Electronic spatial extent (au):  <R**2>=           2482.9717
 Charge=             -0.0000 electrons
 Dipole moment (field-independent basis, Debye):
    X=             -0.0000    Y=              0.0000    Z=              0.0011  Tot=              0.0011
 Quadrupole moment (field-independent basis, Debye-Ang):
   XX=            -64.6206   YY=            -72.9266   ZZ=            -89.6218
   XY=            -10.2515   XZ=              0.0001   YZ=             -0.0001
 Traceless Quadrupole moment (field-independent basis, Debye-Ang):
   XX=             11.1024   YY=              2.7964   ZZ=            -13.8987
   XY=            -10.2515   XZ=              0.0001   YZ=             -0.0001
 Octapole moment (field-independent basis, Debye-Ang**2):
  XXX=             -0.0000  YYY=              0.0000  ZZZ=              0.0015  XYY=             -0.0000
  XXY=              0.0000  XXZ=              0.0010  XZZ=              0.0000  YZZ=             -0.0000
  YYZ=              0.0146  XYZ=             -0.0099
 Hexadecapole moment (field-independent basis, Debye-Ang**3):
 XXXX=          -1968.6838 YYYY=           -863.7576 ZZZZ=           -109.4960 XXXY=            -37.5118
 XXXZ=              0.0007 YYYX=           -145.3597 YYYZ=             -0.0023 ZZZX=              0.0009
 ZZZY=             -0.0013 XXYY=           -408.0720 XXZZ=           -442.6661 YYZZ=           -200.2630
 XXYZ=             -0.0004 YYXZ=              0.0008 ZZXY=             -7.4293
 N-N= 8.697528925270D+02 E-N=-4.705727261354D+03  KE= 1.252540495908D+03
 Breneman (CHELPG) radii used.
 Generate Potential Derived Charges using the Breneman model, NDens= 1.
 Grid spacing= 0.300 Box extension= 2.800
 NStep X,Y,Z=   47     40     20   Total possible points=       37600
 Number of Points to Fit=   12460

 **********************************************************************

            Electrostatic Properties Using The SCF Density

 **********************************************************************

       Atomic Center    1 is at   0.722496 -0.003624 -0.000019
       Atomic Center    2 is at   1.571787 -1.093831  0.000027
       Atomic Center    3 is at   2.954385 -0.763999 -0.000003
       Atomic Center    4 is at   3.162928  0.584867 -0.000115
       Atomic Center    5 is at   1.682051  1.473811  0.000001
       Atomic Center    6 is at   3.749041 -1.500485 -0.000001
       Atomic Center    7 is at   4.104659  1.111451 -0.000188
       Atomic Center    8 is at  -0.722496  0.003624 -0.000018
       Atomic Center    9 is at  -1.571787  1.093831  0.000036
       Atomic Center   10 is at  -1.682051 -1.473811 -0.000002
       Atomic Center   11 is at  -2.954385  0.763999  0.000005
       Atomic Center   12 is at  -3.162928 -0.584867 -0.000114
       Atomic Center   13 is at  -3.749041  1.500485  0.000013
       Atomic Center   14 is at  -4.104659 -1.111451 -0.000191
       Atomic Center   15 is at   1.076324 -2.371067  0.000041
       Atomic Center   16 is at  -1.076324  2.371067  0.000059
       Atomic Center   17 is at  -1.801508  3.003059  0.000394
       Atomic Center   18 is at   1.801508 -3.003059  0.000401
   12460 points will be used for fitting atomic charges
 Fitting point charges to electrostatic potential
 Charges from ESP fit, RMS=   0.00497 RRMS=   0.29585:
 ESP charges:
               1
     1  C   -0.043399
     2  C    0.382783
     3  C   -0.323820
     4  C   -0.168744
     5  S   -0.005889
     6  H    0.150103
     7  H    0.176998
     8  C   -0.043398
     9  C    0.382783
    10  S   -0.005889
    11  C   -0.323820
    12  C   -0.168744
    13  H    0.150103
    14  H    0.176998
    15  O   -0.583911
    16  O   -0.583911
    17  H    0.415879
    18  H    0.415879
 Sum of ESP charges =   0.00000
 ESP charges with hydrogens summed into heavy atoms:
               1
     1  C   -0.043399
     2  C    0.382783
     3  C   -0.173717
     4  C    0.008254
     5  S   -0.005889
     8  C   -0.043398
     9  C    0.382783
    10  S   -0.005889
    11  C   -0.173717
    12  C    0.008254
    15  O   -0.168033
    16  O   -0.168033
 Charge=   0.00000 Dipole=    -0.0000     0.0000     0.0013 Tot=     0.0013
 -----------------------------------------------------------------

              Electrostatic Properties (Atomic Units)

 -----------------------------------------------------------------
    Center     Electric         -------- Electric Field --------
               Potential          X             Y             Z
 -----------------------------------------------------------------
    1 Atom    -14.740389
    2 Atom    -14.710809
    3 Atom    -14.768007
    4 Atom    -14.749934
    5 Atom    -59.220416
    6 Atom     -1.084425
    7 Atom     -1.080475
    8 Atom    -14.740389
    9 Atom    -14.710809
   10 Atom    -59.220416
   11 Atom    -14.768007
   12 Atom    -14.749934
   13 Atom     -1.084425
   14 Atom     -1.080475
   15 Atom    -22.329802
   16 Atom    -22.329802
   17 Atom     -0.965928
   18 Atom     -0.965928
 -----------------------------------------------------------------
 1\1\GINC-CX1-141-15-3\FOpt\RB3LYP\6-311+G(d,p)\C8H6O2S2\NS5018\06-Feb-
 2020\0\\# opt b3lyp/6-311+g(d,p) geom=connectivity pop=ChelpG\\Title C
 ard Required\\0,1\C,-0.5982141863,-0.4051581399,-0.0000542969\C,-1.914
 8801375,0.0146479904,-0.0000076092\C,-2.869402535,-1.0385627625,-0.000
 0378797\C,-2.2794868264,-2.2693878698,-0.0001497016\S,-0.5553652304,-2
 .1663301798,-0.0000340145\H,-3.9411638968,-0.879765218,-0.000036161\H,
 -2.7590810194,-3.2358961332,-0.0002234293\C,0.5982141864,0.4051581384,
 -0.0000528924\C,1.9148801374,-0.0146479918,0.0000012942\S,0.5553652307
 ,2.1663301785,-0.0000375162\C,2.869402535,1.038562761,-0.0000296481\C,
 2.2794868269,2.2693878677,-0.0001495221\H,3.9411638968,0.8797652166,-0
 .0000222869\H,2.7590810204,3.2358961307,-0.0002256843\O,-2.2275789898,
 1.348452782,0.0000057595\O,2.2275789892,-1.3484527831,0.0000236377\H,3
 .1829860984,-1.460272896,0.0003588206\H,-3.1829860894,1.4602728989,0.0
 003663901\\Version=ES64L-G16RevA.03\State=1-A\HF=-1255.4325622\RMSD=6.
 810e-09\RMSF=1.530e-04\Dipole=0.,0.,0.0004357\Quadrupole=13.3892147,-3
 .0558347,-10.33338,0.1214413,-0.0000824,0.0000532\PG=C01 [X(C8H6O2S2)]
 \\@


 WE MIGHT AS WELL ATTEMPT TO INTRODUCE A NEW PLANET 
 INTO THE SOLAR SYSTEM, OR TO ANNIHILATE ONE ALREADYIN EXISTENCE, 
 AS TO CREATE OR DESTROY A PARTICLE OF HYDROGEN.
 ALL THE CHANGES WE CAN PRODUCE CONSIST IN SEPARATING PARTICLES
 THAT ARE IN A STATE OF ... COMBINATION, AND JOINING 
 THOSE THAT WERE PREVIOUSLY AT A DISTANCE.

                                    -- JOHN DALTON, 1810
 Job cpu time:       0 days  0 hours 58 minutes 19.1 seconds.
 Elapsed time:       0 days  0 hours  7 minutes 17.9 seconds.
 File lengths (MBytes):  RWF=     65 Int=      0 D2E=      0 Chk=      8 Scr=      1
 Normal termination of Gaussian 16 at Thu Feb  6 07:48:21 2020.
