 Entering Gaussian System, Link 0=g16
 Input=gaussian_w_pop.gjf
 Output=gaussian_w_pop.log
 Initial command:
 /apps/gaussian/g16-a03/l1.exe "/tmp/pbs.1040341.pbs/Gau-13896.inp" -scrdir="/tmp/pbs.1040341.pbs/"
 Entering Link 1 = /apps/gaussian/g16-a03/l1.exe PID=     13898.
  
 Copyright (c) 1988,1990,1992,1993,1995,1998,2003,2009,2016,
            Gaussian, Inc.  All Rights Reserved.
  
 This is part of the Gaussian(R) 16 program.  It is based on
 the Gaussian(R) 09 system (copyright 2009, Gaussian, Inc.),
 the Gaussian(R) 03 system (copyright 2003, Gaussian, Inc.),
 the Gaussian(R) 98 system (copyright 1998, Gaussian, Inc.),
 the Gaussian(R) 94 system (copyright 1995, Gaussian, Inc.),
 the Gaussian 92(TM) system (copyright 1992, Gaussian, Inc.),
 the Gaussian 90(TM) system (copyright 1990, Gaussian, Inc.),
 the Gaussian 88(TM) system (copyright 1988, Gaussian, Inc.),
 the Gaussian 86(TM) system (copyright 1986, Carnegie Mellon
 University), and the Gaussian 82(TM) system (copyright 1983,
 Carnegie Mellon University). Gaussian is a federally registered
 trademark of Gaussian, Inc.
  
 This software contains proprietary and confidential information,
 including trade secrets, belonging to Gaussian, Inc.
  
 This software is provided under written license and may be
 used, copied, transmitted, or stored only in accord with that
 written license.
  
 The following legend is applicable only to US Government
 contracts under FAR:
  
                    RESTRICTED RIGHTS LEGEND
  
 Use, reproduction and disclosure by the US Government is
 subject to restrictions as set forth in subparagraphs (a)
 and (c) of the Commercial Computer Software - Restricted
 Rights clause in FAR 52.227-19.
  
 Gaussian, Inc.
 340 Quinnipiac St., Bldg. 40, Wallingford CT 06492
  
  
 ---------------------------------------------------------------
 Warning -- This program may not be used in any manner that
 competes with the business of Gaussian, Inc. or will provide
 assistance to any competitor of Gaussian, Inc.  The licensee
 of this program is prohibited from giving any competitor of
 Gaussian, Inc. access to this program.  By using this program,
 the user acknowledges that Gaussian, Inc. is engaged in the
 business of creating and licensing software in the field of
 computational chemistry and represents and warrants to the
 licensee that it is not a competitor of Gaussian, Inc. and that
 it will not use this program in any manner prohibited above.
 ---------------------------------------------------------------
  

 Cite this work as:
 Gaussian 16, Revision A.03,
 M. J. Frisch, G. W. Trucks, H. B. Schlegel, G. E. Scuseria, 
 M. A. Robb, J. R. Cheeseman, G. Scalmani, V. Barone, 
 G. A. Petersson, H. Nakatsuji, X. Li, M. Caricato, A. V. Marenich, 
 J. Bloino, B. G. Janesko, R. Gomperts, B. Mennucci, H. P. Hratchian, 
 J. V. Ortiz, A. F. Izmaylov, J. L. Sonnenberg, D. Williams-Young, 
 F. Ding, F. Lipparini, F. Egidi, J. Goings, B. Peng, A. Petrone, 
 T. Henderson, D. Ranasinghe, V. G. Zakrzewski, J. Gao, N. Rega, 
 G. Zheng, W. Liang, M. Hada, M. Ehara, K. Toyota, R. Fukuda, 
 J. Hasegawa, M. Ishida, T. Nakajima, Y. Honda, O. Kitao, H. Nakai, 
 T. Vreven, K. Throssell, J. A. Montgomery, Jr., J. E. Peralta, 
 F. Ogliaro, M. J. Bearpark, J. J. Heyd, E. N. Brothers, K. N. Kudin, 
 V. N. Staroverov, T. A. Keith, R. Kobayashi, J. Normand, 
 K. Raghavachari, A. P. Rendell, J. C. Burant, S. S. Iyengar, 
 J. Tomasi, M. Cossi, J. M. Millam, M. Klene, C. Adamo, R. Cammi, 
 J. W. Ochterski, R. L. Martin, K. Morokuma, O. Farkas, 
 J. B. Foresman, and D. J. Fox, Gaussian, Inc., Wallingford CT, 2016.
 
 ******************************************
 Gaussian 16:  ES64L-G16RevA.03 25-Dec-2016
                 6-Feb-2020 
 ******************************************
 %mem=10GB
 %nprocshared=8
 Will use up to    8 processors via shared memory.
 %chk=gT2_innerdihscan.chk
 ------------------------------------------------------
 # opt wb97xd/6-311+g(d,p) geom=connectivity pop=ChelpG
 ------------------------------------------------------
 1/18=20,19=15,26=3,38=1,57=2/1,3;
 2/9=110,12=2,17=6,18=5,40=1/2;
 3/5=4,6=6,7=111,11=2,25=1,30=1,71=1,74=-58/1,2,3;
 4//1;
 5/5=2,38=5/2;
 6/7=2,8=2,9=2,10=2,15=8,20=3,28=1/1,2;
 7//1,2,3,16;
 1/18=20,19=15,26=3/3(2);
 2/9=110/2;
 99//99;
 2/9=110/2;
 3/5=4,6=6,7=111,11=2,25=1,30=1,71=1,74=-58/1,2,3;
 4/5=5,16=3,69=1/1;
 5/5=2,38=5/2;
 7//1,2,3,16;
 1/18=20,19=15,26=3/3(-5);
 2/9=110/2;
 6/7=2,8=2,9=2,10=2,15=8,19=2,20=3,28=1/1,2;
 99/9=1/99;
 -------------------
 Title Card Required
 -------------------
 Symbolic Z-matrix:
 Charge =  0 Multiplicity = 1
 C                    -0.59366  -0.41063  -0.00009 
 C                    -1.91734   0.00391  -0.00003 
 C                    -2.86398  -1.05921  -0.00001 
 C                    -2.25936  -2.2846   -0.0001 
 S                    -0.53724  -2.16837  -0.00024 
 H                    -3.93604  -0.92509   0.00005 
 H                    -2.73094  -3.25516  -0.00012 
 C                     0.59366   0.41063  -0.00009 
 C                     1.91734  -0.00391  -0.00002 
 S                     0.53724   2.16837  -0.00025 
 C                     2.86398   1.05921  -0.00001 
 C                     2.25936   2.2846   -0.0001 
 H                     3.93604   0.92509   0.00006 
 H                     2.73094   3.25516  -0.00012 
 O                    -2.20249   1.33737   0.00001 
 O                     2.20249  -1.33737   0.00002 
 H                     3.12567  -1.6007    0.00036 
 H                    -3.12567   1.6007    0.00036 
 

 GradGradGradGradGradGradGradGradGradGradGradGradGradGradGradGradGradGrad
 Berny optimization.
 Initialization pass.
                           ----------------------------
                           !    Initial Parameters    !
                           ! (Angstroms and Degrees)  !
 --------------------------                            --------------------------
 ! Name  Definition              Value          Derivative Info.                !
 --------------------------------------------------------------------------------
 ! R1    R(1,2)                  1.3871         estimate D2E/DX2                !
 ! R2    R(1,5)                  1.7586         estimate D2E/DX2                !
 ! R3    R(1,8)                  1.4437         estimate D2E/DX2                !
 ! R4    R(2,3)                  1.4235         estimate D2E/DX2                !
 ! R5    R(2,15)                 1.3636         estimate D2E/DX2                !
 ! R6    R(3,4)                  1.3664         estimate D2E/DX2                !
 ! R7    R(3,6)                  1.0804         estimate D2E/DX2                !
 ! R8    R(4,5)                  1.726          estimate D2E/DX2                !
 ! R9    R(4,7)                  1.0791         estimate D2E/DX2                !
 ! R10   R(8,9)                  1.3871         estimate D2E/DX2                !
 ! R11   R(8,10)                 1.7586         estimate D2E/DX2                !
 ! R12   R(9,11)                 1.4235         estimate D2E/DX2                !
 ! R13   R(9,16)                 1.3636         estimate D2E/DX2                !
 ! R14   R(10,12)                1.726          estimate D2E/DX2                !
 ! R15   R(11,12)                1.3664         estimate D2E/DX2                !
 ! R16   R(11,13)                1.0804         estimate D2E/DX2                !
 ! R17   R(12,14)                1.0791         estimate D2E/DX2                !
 ! R18   R(15,18)                0.96           estimate D2E/DX2                !
 ! R19   R(16,17)                0.96           estimate D2E/DX2                !
 ! A1    A(2,1,5)              109.228          estimate D2E/DX2                !
 ! A2    A(2,1,8)              127.9393         estimate D2E/DX2                !
 ! A3    A(5,1,8)              122.8328         estimate D2E/DX2                !
 ! A4    A(1,2,3)              114.2937         estimate D2E/DX2                !
 ! A5    A(1,2,15)             119.46           estimate D2E/DX2                !
 ! A6    A(3,2,15)             126.2463         estimate D2E/DX2                !
 ! A7    A(2,3,4)              112.0548         estimate D2E/DX2                !
 ! A8    A(2,3,6)              124.5521         estimate D2E/DX2                !
 ! A9    A(4,3,6)              123.3931         estimate D2E/DX2                !
 ! A10   A(3,4,5)              112.4009         estimate D2E/DX2                !
 ! A11   A(3,4,7)              127.8234         estimate D2E/DX2                !
 ! A12   A(5,4,7)              119.7757         estimate D2E/DX2                !
 ! A13   A(1,5,4)               92.0227         estimate D2E/DX2                !
 ! A14   A(1,8,9)              127.9393         estimate D2E/DX2                !
 ! A15   A(1,8,10)             122.8328         estimate D2E/DX2                !
 ! A16   A(9,8,10)             109.228          estimate D2E/DX2                !
 ! A17   A(8,9,11)             114.2937         estimate D2E/DX2                !
 ! A18   A(8,9,16)             119.46           estimate D2E/DX2                !
 ! A19   A(11,9,16)            126.2463         estimate D2E/DX2                !
 ! A20   A(8,10,12)             92.0227         estimate D2E/DX2                !
 ! A21   A(9,11,12)            112.0548         estimate D2E/DX2                !
 ! A22   A(9,11,13)            124.5521         estimate D2E/DX2                !
 ! A23   A(12,11,13)           123.3931         estimate D2E/DX2                !
 ! A24   A(10,12,11)           112.4009         estimate D2E/DX2                !
 ! A25   A(10,12,14)           119.7757         estimate D2E/DX2                !
 ! A26   A(11,12,14)           127.8234         estimate D2E/DX2                !
 ! A27   A(2,15,18)            117.9908         estimate D2E/DX2                !
 ! A28   A(9,16,17)            117.9908         estimate D2E/DX2                !
 ! D1    D(5,1,2,3)              0.0042         estimate D2E/DX2                !
 ! D2    D(5,1,2,15)          -179.9959         estimate D2E/DX2                !
 ! D3    D(8,1,2,3)           -179.9984         estimate D2E/DX2                !
 ! D4    D(8,1,2,15)             0.0015         estimate D2E/DX2                !
 ! D5    D(2,1,5,4)             -0.0042         estimate D2E/DX2                !
 ! D6    D(8,1,5,4)            179.9983         estimate D2E/DX2                !
 ! D7    D(2,1,8,9)            179.9937         estimate D2E/DX2                !
 ! D8    D(2,1,8,10)            -0.0091         estimate D2E/DX2                !
 ! D9    D(5,1,8,9)             -0.0093         estimate D2E/DX2                !
 ! D10   D(5,1,8,10)           179.9879         estimate D2E/DX2                !
 ! D11   D(1,2,3,4)             -0.0018         estimate D2E/DX2                !
 ! D12   D(1,2,3,6)            179.9988         estimate D2E/DX2                !
 ! D13   D(15,2,3,4)           179.9983         estimate D2E/DX2                !
 ! D14   D(15,2,3,6)            -0.0011         estimate D2E/DX2                !
 ! D15   D(1,2,15,18)         -179.9784         estimate D2E/DX2                !
 ! D16   D(3,2,15,18)            0.0215         estimate D2E/DX2                !
 ! D17   D(2,3,4,5)             -0.0015         estimate D2E/DX2                !
 ! D18   D(2,3,4,7)           -179.9988         estimate D2E/DX2                !
 ! D19   D(6,3,4,5)            179.9978         estimate D2E/DX2                !
 ! D20   D(6,3,4,7)              0.0006         estimate D2E/DX2                !
 ! D21   D(3,4,5,1)              0.0033         estimate D2E/DX2                !
 ! D22   D(7,4,5,1)           -179.9992         estimate D2E/DX2                !
 ! D23   D(1,8,9,11)          -179.9983         estimate D2E/DX2                !
 ! D24   D(1,8,9,16)             0.0014         estimate D2E/DX2                !
 ! D25   D(10,8,9,11)            0.0041         estimate D2E/DX2                !
 ! D26   D(10,8,9,16)         -179.9961         estimate D2E/DX2                !
 ! D27   D(1,8,10,12)          179.9982         estimate D2E/DX2                !
 ! D28   D(9,8,10,12)           -0.0042         estimate D2E/DX2                !
 ! D29   D(8,9,11,12)           -0.0018         estimate D2E/DX2                !
 ! D30   D(8,9,11,13)          179.9988         estimate D2E/DX2                !
 ! D31   D(16,9,11,12)         179.9985         estimate D2E/DX2                !
 ! D32   D(16,9,11,13)          -0.001          estimate D2E/DX2                !
 ! D33   D(8,9,16,17)         -179.9802         estimate D2E/DX2                !
 ! D34   D(11,9,16,17)           0.0196         estimate D2E/DX2                !
 ! D35   D(8,10,12,11)           0.0033         estimate D2E/DX2                !
 ! D36   D(8,10,12,14)        -179.9992         estimate D2E/DX2                !
 ! D37   D(9,11,12,10)          -0.0015         estimate D2E/DX2                !
 ! D38   D(9,11,12,14)        -179.9988         estimate D2E/DX2                !
 ! D39   D(13,11,12,10)        179.9979         estimate D2E/DX2                !
 ! D40   D(13,11,12,14)          0.0007         estimate D2E/DX2                !
 --------------------------------------------------------------------------------
 Trust Radius=3.00D-01 FncErr=1.00D-07 GrdErr=1.00D-06 EigMax=2.50D+02 EigMin=1.00D-04
 Number of steps in this run=     97 maximum allowed number of steps=    108.
 GradGradGradGradGradGradGradGradGradGradGradGradGradGradGradGradGradGrad

                          Input orientation:                          
 ---------------------------------------------------------------------
 Center     Atomic      Atomic             Coordinates (Angstroms)
 Number     Number       Type             X           Y           Z
 ---------------------------------------------------------------------
      1          6           0       -0.593663   -0.410632   -0.000087
      2          6           0       -1.917339    0.003914   -0.000030
      3          6           0       -2.863983   -1.059207   -0.000012
      4          6           0       -2.259364   -2.284600   -0.000096
      5         16           0       -0.537240   -2.168368   -0.000240
      6          1           0       -3.936038   -0.925086    0.000049
      7          1           0       -2.730943   -3.255156   -0.000122
      8          6           0        0.593663    0.410632   -0.000087
      9          6           0        1.917339   -0.003914   -0.000023
     10         16           0        0.537240    2.168368   -0.000245
     11          6           0        2.863983    1.059207   -0.000005
     12          6           0        2.259364    2.284600   -0.000095
     13          1           0        3.936038    0.925086    0.000062
     14          1           0        2.730943    3.255156   -0.000122
     15          8           0       -2.202491    1.337369    0.000005
     16          8           0        2.202491   -1.337369    0.000021
     17          1           0        3.125670   -1.600696    0.000359
     18          1           0       -3.125670    1.600696    0.000364
 ---------------------------------------------------------------------
                    Distance matrix (angstroms):
                    1          2          3          4          5
     1  C    0.000000
     2  C    1.387071   0.000000
     3  C    2.361144   1.423503   0.000000
     4  C    2.507253   2.313931   1.366438   0.000000
     5  S    1.758641   2.573613   2.577590   1.726042   0.000000
     6  H    3.381735   2.222203   1.080412   2.158591   3.619058
     7  H    3.557989   3.359090   2.199975   1.079058   2.448151
     8  C    1.443682   2.543728   3.757092   3.924798   2.816058
     9  C    2.543728   3.834686   4.896395   4.758821   3.272586
    10  S    2.816058   3.272586   4.688876   5.258319   4.467862
    11  C    3.757092   4.896395   6.107149   6.117984   4.688876
    12  C    3.924798   4.758821   6.117984   6.426235   5.258319
    13  H    4.722535   5.925418   7.083622   6.977470   5.438720
    14  H    4.948839   5.672486   7.065191   7.456008   6.332111
    15  O    2.375676   1.363603   2.486192   3.622415   3.881141
    16  O    2.945729   4.332671   5.074104   4.561293   2.862985
    17  H    3.905085   5.292137   6.014079   5.428288   3.706637
    18  H    3.233651   2.002442   2.672745   3.980705   4.572287
                    6          7          8          9         10
     6  H    0.000000
     7  H    2.623258   0.000000
     8  C    4.722535   4.948839   0.000000
     9  C    5.925418   5.672486   1.387071   0.000000
    10  S    5.438720   6.332111   1.758641   2.573613   0.000000
    11  C    7.083622   7.065191   2.361144   1.423503   2.577590
    12  C    6.977470   7.456008   2.507253   2.313931   1.726042
    13  H    8.086576   7.869121   3.381735   2.222203   3.619058
    14  H    7.869121   8.498021   3.557989   3.359090   2.448151
    15  O    2.850243   4.622829   2.945729   4.332671   2.862985
    16  O    6.152359   5.293078   2.375676   1.363603   3.881141
    17  H    7.093953   6.085816   3.233651   2.002442   4.572287
    18  H    2.652597   4.871869   3.905085   5.292137   3.706637
                   11         12         13         14         15
    11  C    0.000000
    12  C    1.366438   0.000000
    13  H    1.080412   2.158591   0.000000
    14  H    2.199975   1.079058   2.623258   0.000000
    15  O    5.074104   4.561293   6.152359   5.293078   0.000000
    16  O    2.486192   3.622415   2.850243   4.622829   5.153454
    17  H    2.672745   3.980705   2.652597   4.871869   6.084531
    18  H    6.014079   5.428288   7.093953   6.085816   0.960000
                   16         17         18
    16  O    0.000000
    17  H    0.960000   0.000000
    18  H    6.084531   7.023400   0.000000
 Stoichiometry    C8H6O2S2
 Framework group  C1[X(C8H6O2S2)]
 Deg. of freedom    48
 Full point group                 C1      NOp   1
 Largest Abelian subgroup         C1      NOp   1
 Largest concise Abelian subgroup C1      NOp   1
                         Standard orientation:                         
 ---------------------------------------------------------------------
 Center     Atomic      Atomic             Coordinates (Angstroms)
 Number     Number       Type             X           Y           Z
 ---------------------------------------------------------------------
      1          6           0        0.721800   -0.007662    0.000007
      2          6           0        1.562949   -1.110583    0.000064
      3          6           0        2.949758   -0.789458    0.000082
      4          6           0        3.163925    0.560092   -0.000002
      5         16           0        1.690946    1.459845   -0.000146
      6          1           0        3.747461   -1.518128    0.000143
      7          1           0        4.109455    1.080033   -0.000028
      8          6           0       -0.721800    0.007662    0.000007
      9          6           0       -1.562949    1.110583    0.000071
     10         16           0       -1.690946   -1.459845   -0.000151
     11          6           0       -2.949758    0.789458    0.000089
     12          6           0       -3.163925   -0.560092   -0.000001
     13          1           0       -3.747461    1.518128    0.000156
     14          1           0       -4.109455   -1.080033   -0.000028
     15          8           0        1.025574   -2.363836    0.000099
     16          8           0       -1.025574    2.363836    0.000115
     17          1           0       -1.627118    3.111997    0.000453
     18          1           0        1.627118   -3.111997    0.000457
 ---------------------------------------------------------------------
 Rotational constants (GHZ):           1.2851131           0.6279971           0.4218509
 Standard basis: 6-311+G(d,p) (5D, 7F)
 There are   328 symmetry adapted cartesian basis functions of A   symmetry.
 There are   316 symmetry adapted basis functions of A   symmetry.
   316 basis functions,   508 primitive gaussians,   328 cartesian basis functions
    51 alpha electrons       51 beta electrons
       nuclear repulsion energy       870.8463659266 Hartrees.
 NAtoms=   18 NActive=   18 NUniq=   18 SFac= 1.00D+00 NAtFMM=   60 NAOKFM=F Big=F
 Integral buffers will be    131072 words long.
 Raffenetti 2 integral format.
 Two-electron integral symmetry is turned on.
 Nuclear repulsion after empirical dispersion term =      870.8378873622 Hartrees.
 One-electron integrals computed using PRISM.
 NBasis=   316 RedAO= T EigKep=  1.77D-06  NBF=   316
 NBsUse=   315 1.00D-06 EigRej=  6.87D-07 NBFU=   315
 ExpMin= 4.05D-02 ExpMax= 9.34D+04 ExpMxC= 3.17D+03 IAcc=3 IRadAn=         5 AccDes= 0.00D+00
 Harris functional with IExCor= 4639 and IRadAn=       5 diagonalized for initial guess.
 HarFok:  IExCor= 4639 AccDes= 0.00D+00 IRadAn=         5 IDoV= 1 UseB2=F ITyADJ=14
 ICtDFT=  3500011 ScaDFX=  1.000000  1.000000  1.000000  1.000000
 FoFCou: FMM=F IPFlag=           0 FMFlag=      100000 FMFlg1=           0
         NFxFlg=           0 DoJE=T BraDBF=F KetDBF=T FulRan=T
         wScrn=  0.000000 ICntrl=       500 IOpCl=  0 I1Cent=   200000004 NGrid=           0
         NMat0=    1 NMatS0=      1 NMatT0=    0 NMatD0=    1 NMtDS0=    0 NMtDT0=    0
 Petite list used in FoFCou.
 Requested convergence on RMS density matrix=1.00D-08 within 128 cycles.
 Requested convergence on MAX density matrix=1.00D-06.
 Requested convergence on             energy=1.00D-06.
 No special actions if energy rises.
 SCF Done:  E(RwB97XD) =  -1255.23037867     A.U. after   15 cycles
            NFock= 15  Conv=0.80D-08     -V/T= 2.0023

 **********************************************************************

            Population analysis using the SCF density.

 **********************************************************************

 Orbital symmetries:
       Occupied  (A) (A) (A) (A) (A) (A) (A) (A) (A) (A) (A) (A)
                 (A) (A) (A) (A) (A) (A) (A) (A) (A) (A) (A) (A)
                 (A) (A) (A) (A) (A) (A) (A) (A) (A) (A) (A) (A)
                 (A) (A) (A) (A) (A) (A) (A) (A) (A) (A) (A) (A)
                 (A) (A) (A)
       Virtual   (A) (A) (A) (A) (A) (A) (A) (A) (A) (A) (A) (A)
                 (A) (A) (A) (A) (A) (A) (A) (A) (A) (A) (A) (A)
                 (A) (A) (A) (A) (A) (A) (A) (A) (A) (A) (A) (A)
                 (A) (A) (A) (A) (A) (A) (A) (A) (A) (A) (A) (A)
                 (A) (A) (A) (A) (A) (A) (A) (A) (A) (A) (A) (A)
                 (A) (A) (A) (A) (A) (A) (A) (A) (A) (A) (A) (A)
                 (A) (A) (A) (A) (A) (A) (A) (A) (A) (A) (A) (A)
                 (A) (A) (A) (A) (A) (A) (A) (A) (A) (A) (A) (A)
                 (A) (A) (A) (A) (A) (A) (A) (A) (A) (A) (A) (A)
                 (A) (A) (A) (A) (A) (A) (A) (A) (A) (A) (A) (A)
                 (A) (A) (A) (A) (A) (A) (A) (A) (A) (A) (A) (A)
                 (A) (A) (A) (A) (A) (A) (A) (A) (A) (A) (A) (A)
                 (A) (A) (A) (A) (A) (A) (A) (A) (A) (A) (A) (A)
                 (A) (A) (A) (A) (A) (A) (A) (A) (A) (A) (A) (A)
                 (A) (A) (A) (A) (A) (A) (A) (A) (A) (A) (A) (A)
                 (A) (A) (A) (A) (A) (A) (A) (A) (A) (A) (A) (A)
                 (A) (A) (A) (A) (A) (A) (A) (A) (A) (A) (A) (A)
                 (A) (A) (A) (A) (A) (A) (A) (A) (A) (A) (A) (A)
                 (A) (A) (A) (A) (A) (A) (A) (A) (A) (A) (A) (A)
                 (A) (A) (A) (A) (A) (A) (A) (A) (A) (A) (A) (A)
                 (A) (A) (A) (A) (A) (A) (A) (A) (A) (A) (A) (A)
                 (A) (A) (A) (A) (A) (A) (A) (A) (A) (A) (A) (A)
 The electronic state is 1-A.
 Alpha  occ. eigenvalues --  -89.04052 -89.04052 -19.28411 -19.28411 -10.35267
 Alpha  occ. eigenvalues --  -10.35266 -10.32076 -10.32038 -10.31369 -10.31369
 Alpha  occ. eigenvalues --  -10.29344 -10.29344  -8.08025  -8.08025  -6.02877
 Alpha  occ. eigenvalues --   -6.02877  -6.02482  -6.02482  -6.02105  -6.02105
 Alpha  occ. eigenvalues --   -1.17033  -1.16942  -0.98940  -0.97208  -0.86864
 Alpha  occ. eigenvalues --   -0.83303  -0.82516  -0.80288  -0.70233  -0.69989
 Alpha  occ. eigenvalues --   -0.68348  -0.64999  -0.62361  -0.57432  -0.56058
 Alpha  occ. eigenvalues --   -0.54998  -0.52246  -0.51710  -0.50834  -0.50075
 Alpha  occ. eigenvalues --   -0.45870  -0.45635  -0.45337  -0.43624  -0.43506
 Alpha  occ. eigenvalues --   -0.42021  -0.40781  -0.35710  -0.31337  -0.31265
 Alpha  occ. eigenvalues --   -0.25607
 Alpha virt. eigenvalues --    0.02463   0.05093   0.05841   0.06787   0.06816
 Alpha virt. eigenvalues --    0.07422   0.08547   0.09645   0.09750   0.10121
 Alpha virt. eigenvalues --    0.10556   0.11956   0.12060   0.12105   0.12189
 Alpha virt. eigenvalues --    0.13082   0.13398   0.14607   0.14712   0.15659
 Alpha virt. eigenvalues --    0.16649   0.17005   0.17493   0.17617   0.19176
 Alpha virt. eigenvalues --    0.19300   0.19981   0.19990   0.20138   0.21054
 Alpha virt. eigenvalues --    0.21717   0.22059   0.22062   0.22977   0.23473
 Alpha virt. eigenvalues --    0.23656   0.24215   0.24666   0.25111   0.25368
 Alpha virt. eigenvalues --    0.25392   0.25868   0.26130   0.26341   0.27890
 Alpha virt. eigenvalues --    0.28185   0.28627   0.30317   0.31196   0.31895
 Alpha virt. eigenvalues --    0.33025   0.33349   0.33369   0.33720   0.34309
 Alpha virt. eigenvalues --    0.35130   0.35879   0.36323   0.37824   0.38129
 Alpha virt. eigenvalues --    0.41328   0.41438   0.41887   0.42534   0.43231
 Alpha virt. eigenvalues --    0.44214   0.44476   0.45575   0.48199   0.50623
 Alpha virt. eigenvalues --    0.51756   0.54113   0.54416   0.55096   0.57347
 Alpha virt. eigenvalues --    0.57978   0.58250   0.60502   0.62809   0.62855
 Alpha virt. eigenvalues --    0.64924   0.64947   0.65293   0.66229   0.66356
 Alpha virt. eigenvalues --    0.68144   0.69305   0.70046   0.70494   0.72075
 Alpha virt. eigenvalues --    0.72173   0.74625   0.77348   0.78786   0.80141
 Alpha virt. eigenvalues --    0.81331   0.82634   0.83487   0.83875   0.84503
 Alpha virt. eigenvalues --    0.84666   0.86229   0.86421   0.86756   0.89353
 Alpha virt. eigenvalues --    0.90463   0.90797   0.92436   0.94118   0.95127
 Alpha virt. eigenvalues --    0.95927   0.96793   0.96919   0.98683   1.01773
 Alpha virt. eigenvalues --    1.05011   1.06306   1.07589   1.09255   1.09461
 Alpha virt. eigenvalues --    1.11729   1.12015   1.13715   1.13800   1.15034
 Alpha virt. eigenvalues --    1.15831   1.15879   1.16433   1.18597   1.21877
 Alpha virt. eigenvalues --    1.24193   1.25896   1.27294   1.32261   1.33205
 Alpha virt. eigenvalues --    1.33232   1.39134   1.41902   1.43949   1.44821
 Alpha virt. eigenvalues --    1.48510   1.49725   1.52322   1.54233   1.56935
 Alpha virt. eigenvalues --    1.61790   1.62872   1.63639   1.64729   1.66831
 Alpha virt. eigenvalues --    1.68339   1.70367   1.71887   1.73294   1.75006
 Alpha virt. eigenvalues --    1.75181   1.78673   1.83936   1.84894   1.85421
 Alpha virt. eigenvalues --    1.85938   1.86716   1.88980   1.89358   1.89478
 Alpha virt. eigenvalues --    1.95953   1.96176   1.96635   1.98864   2.01278
 Alpha virt. eigenvalues --    2.05576   2.06623   2.07354   2.10645   2.11504
 Alpha virt. eigenvalues --    2.12687   2.15125   2.16236   2.16849   2.18645
 Alpha virt. eigenvalues --    2.19085   2.20482   2.24451   2.25151   2.25215
 Alpha virt. eigenvalues --    2.26736   2.27492   2.31864   2.47700   2.49587
 Alpha virt. eigenvalues --    2.54084   2.60122   2.62891   2.66860   2.68845
 Alpha virt. eigenvalues --    2.70982   2.73117   2.75559   2.75874   2.78076
 Alpha virt. eigenvalues --    2.80802   2.82624   2.83284   2.84066   2.84995
 Alpha virt. eigenvalues --    2.88875   2.94300   3.01763   3.06019   3.08714
 Alpha virt. eigenvalues --    3.08733   3.09420   3.13735   3.14004   3.23786
 Alpha virt. eigenvalues --    3.24016   3.29329   3.30045   3.30689   3.31274
 Alpha virt. eigenvalues --    3.39628   3.41648   3.43936   3.44856   3.48555
 Alpha virt. eigenvalues --    3.54137   3.54674   3.60653   3.65853   3.83964
 Alpha virt. eigenvalues --    4.02273   4.03903   4.08413   4.17359   4.18321
 Alpha virt. eigenvalues --    4.28276   4.38499   4.67529   5.10758   5.11627
 Alpha virt. eigenvalues --    5.53309   5.53755   5.88010   5.91346   8.10343
 Alpha virt. eigenvalues --    8.11878  17.42869  17.43875  17.61517  17.63936
 Alpha virt. eigenvalues --   17.67749  17.72342  23.62599  23.82979  23.94530
 Alpha virt. eigenvalues --   23.97794  24.16551  24.16839  24.28563  24.29089
 Alpha virt. eigenvalues --   50.08122  50.09525 189.34769 189.36982
          Condensed to atoms (all electrons):
               1          2          3          4          5          6
     1  C    9.768032  -4.469735   1.044325  -0.761865   0.711179   0.051955
     2  C   -4.469735  17.509642  -6.189404   1.716407  -1.988484  -0.164542
     3  C    1.044325  -6.189404  12.216170  -0.834926   0.269854   0.453528
     4  C   -0.761865   1.716407  -0.834926   6.054469  -0.085582  -0.001979
     5  S    0.711179  -1.988484   0.269854  -0.085582  17.124238   0.012537
     6  H    0.051955  -0.164542   0.453528  -0.001979   0.012537   0.502329
     7  H    0.040553  -0.069107   0.069128   0.351055  -0.026950  -0.003604
     8  C    0.219929  -1.290612   0.017418  -0.180622   0.632827   0.006295
     9  C   -1.290612   1.377111  -0.419519  -0.061429  -0.520602   0.001823
    10  S    0.632827  -0.520602   0.005419   0.047967   0.149354  -0.000238
    11  C    0.017418  -0.419519  -0.049078  -0.017304   0.005419   0.000002
    12  C   -0.180622  -0.061429  -0.017304  -0.017604   0.047967   0.000110
    13  H    0.006295   0.001823   0.000002   0.000110  -0.000238   0.000000
    14  H    0.000375   0.003202   0.000346  -0.000019  -0.000607  -0.000000
    15  O   -0.081117   0.095335   0.044872   0.005899   0.032694   0.000118
    16  O   -0.030397   0.002897  -0.002521   0.005777  -0.070294   0.000033
    17  H    0.029503   0.001843   0.000903  -0.000166   0.010011   0.000000
    18  H    0.027066   0.203327  -0.259074   0.004530  -0.005281  -0.000083
               7          8          9         10         11         12
     1  C    0.040553   0.219929  -1.290612   0.632827   0.017418  -0.180622
     2  C   -0.069107  -1.290612   1.377111  -0.520602  -0.419519  -0.061429
     3  C    0.069128   0.017418  -0.419519   0.005419  -0.049078  -0.017304
     4  C    0.351055  -0.180622  -0.061429   0.047967  -0.017304  -0.017604
     5  S   -0.026950   0.632827  -0.520602   0.149354   0.005419   0.047967
     6  H   -0.003604   0.006295   0.001823  -0.000238   0.000002   0.000110
     7  H    0.450180   0.000375   0.003202  -0.000607   0.000346  -0.000019
     8  C    0.000375   9.768032  -4.469734   0.711179   1.044325  -0.761865
     9  C    0.003202  -4.469734  17.509642  -1.988484  -6.189404   1.716407
    10  S   -0.000607   0.711179  -1.988484  17.124238   0.269854  -0.085582
    11  C    0.000346   1.044325  -6.189404   0.269854  12.216170  -0.834926
    12  C   -0.000019  -0.761865   1.716407  -0.085582  -0.834926   6.054469
    13  H   -0.000000   0.051955  -0.164542   0.012537   0.453528  -0.001979
    14  H    0.000000   0.040553  -0.069107  -0.026950   0.069128   0.351055
    15  O   -0.000214  -0.030397   0.002897  -0.070294  -0.002521   0.005777
    16  O   -0.000043  -0.081117   0.095335   0.032694   0.044872   0.005899
    17  H   -0.000006   0.027066   0.203327  -0.005281  -0.259074   0.004529
    18  H    0.000012   0.029503   0.001843   0.010011   0.000903  -0.000166
              13         14         15         16         17         18
     1  C    0.006295   0.000375  -0.081117  -0.030397   0.029503   0.027066
     2  C    0.001823   0.003202   0.095335   0.002897   0.001843   0.203327
     3  C    0.000002   0.000346   0.044872  -0.002521   0.000903  -0.259074
     4  C    0.000110  -0.000019   0.005899   0.005777  -0.000166   0.004530
     5  S   -0.000238  -0.000607   0.032694  -0.070294   0.010011  -0.005281
     6  H    0.000000  -0.000000   0.000118   0.000033   0.000000  -0.000083
     7  H   -0.000000   0.000000  -0.000214  -0.000043  -0.000006   0.000012
     8  C    0.051955   0.040553  -0.030397  -0.081117   0.027066   0.029503
     9  C   -0.164542  -0.069107   0.002897   0.095335   0.203327   0.001843
    10  S    0.012537  -0.026950  -0.070294   0.032694  -0.005281   0.010011
    11  C    0.453528   0.069128  -0.002521   0.044872  -0.259074   0.000903
    12  C   -0.001979   0.351055   0.005777   0.005899   0.004529  -0.000166
    13  H    0.502329  -0.003604   0.000033   0.000118  -0.000083   0.000000
    14  H   -0.003604   0.450180  -0.000043  -0.000214   0.000012  -0.000006
    15  O    0.000033  -0.000043   8.048473  -0.001404  -0.000052   0.227635
    16  O    0.000118  -0.000214  -0.001404   8.048473   0.227635  -0.000052
    17  H   -0.000083   0.000012  -0.000052   0.227635   0.463396  -0.000000
    18  H    0.000000  -0.000006   0.227635  -0.000052  -0.000000   0.463396
 Mulliken charges:
               1
     1  C    0.264892
     2  C    0.261846
     3  C   -0.350139
     4  C   -0.224718
     5  S   -0.298041
     6  H    0.141716
     7  H    0.185697
     8  C    0.264892
     9  C    0.261846
    10  S   -0.298041
    11  C   -0.350139
    12  C   -0.224718
    13  H    0.141716
    14  H    0.185697
    15  O   -0.277690
    16  O   -0.277690
    17  H    0.296437
    18  H    0.296437
 Sum of Mulliken charges =  -0.00000
 Mulliken charges with hydrogens summed into heavy atoms:
               1
     1  C    0.264892
     2  C    0.261846
     3  C   -0.208423
     4  C   -0.039021
     5  S   -0.298041
     8  C    0.264892
     9  C    0.261846
    10  S   -0.298041
    11  C   -0.208423
    12  C   -0.039021
    15  O    0.018747
    16  O    0.018747
 Electronic spatial extent (au):  <R**2>=           2470.9584
 Charge=             -0.0000 electrons
 Dipole moment (field-independent basis, Debye):
    X=             -0.0000    Y=              0.0000    Z=              0.0012  Tot=              0.0012
 Quadrupole moment (field-independent basis, Debye-Ang):
   XX=            -64.6045   YY=            -68.8774   ZZ=            -89.3635
   XY=            -10.3715   XZ=              0.0000   YZ=             -0.0001
 Traceless Quadrupole moment (field-independent basis, Debye-Ang):
   XX=              9.6773   YY=              5.4044   ZZ=            -15.0817
   XY=            -10.3715   XZ=              0.0000   YZ=             -0.0001
 Octapole moment (field-independent basis, Debye-Ang**2):
  XXX=             -0.0000  YYY=              0.0000  ZZZ=              0.0005  XYY=             -0.0000
  XXY=              0.0000  XXZ=              0.0048  XZZ=              0.0000  YZZ=             -0.0000
  YYZ=              0.0161  XYZ=             -0.0109
 Hexadecapole moment (field-independent basis, Debye-Ang**3):
 XXXX=          -1926.8781 YYYY=           -785.9450 ZZZZ=           -106.9470 XXXY=            -25.8227
 XXXZ=              0.0003 YYYX=           -157.4570 YYYZ=             -0.0021 ZZZX=              0.0006
 ZZZY=             -0.0012 XXYY=           -406.9664 XXZZ=           -437.8294 YYZZ=           -197.5389
 XXYZ=             -0.0003 YYXZ=              0.0006 ZZXY=             -6.5689
 N-N= 8.708378873622D+02 E-N=-4.707930918368D+03  KE= 1.252323439999D+03
 Breneman (CHELPG) radii used.
 Generate Potential Derived Charges using the Breneman model, NDens= 1.
 Grid spacing= 0.300 Box extension= 2.800
 NStep X,Y,Z=   48     41     20   Total possible points=       39360
 Number of Points to Fit=   12574

 **********************************************************************

            Electrostatic Properties Using The SCF Density

 **********************************************************************

       Atomic Center    1 is at   0.721800 -0.007662  0.000007
       Atomic Center    2 is at   1.562949 -1.110583  0.000064
       Atomic Center    3 is at   2.949758 -0.789458  0.000082
       Atomic Center    4 is at   3.163925  0.560092 -0.000002
       Atomic Center    5 is at   1.690946  1.459845 -0.000146
       Atomic Center    6 is at   3.747461 -1.518128  0.000143
       Atomic Center    7 is at   4.109455  1.080033 -0.000028
       Atomic Center    8 is at  -0.721800  0.007662  0.000007
       Atomic Center    9 is at  -1.562949  1.110583  0.000071
       Atomic Center   10 is at  -1.690946 -1.459845 -0.000151
       Atomic Center   11 is at  -2.949758  0.789458  0.000089
       Atomic Center   12 is at  -3.163925 -0.560092 -0.000001
       Atomic Center   13 is at  -3.747461  1.518128  0.000156
       Atomic Center   14 is at  -4.109455 -1.080033 -0.000028
       Atomic Center   15 is at   1.025574 -2.363836  0.000099
       Atomic Center   16 is at  -1.025574  2.363836  0.000115
       Atomic Center   17 is at  -1.627118  3.111997  0.000453
       Atomic Center   18 is at   1.627118 -3.111997  0.000457
   12574 points will be used for fitting atomic charges
 Fitting point charges to electrostatic potential
 Charges from ESP fit, RMS=   0.00471 RRMS=   0.26524:
 ESP charges:
               1
     1  C   -0.059837
     2  C    0.397794
     3  C   -0.312389
     4  C   -0.206044
     5  S    0.004779
     6  H    0.155937
     7  H    0.194251
     8  C   -0.059837
     9  C    0.397794
    10  S    0.004779
    11  C   -0.312389
    12  C   -0.206044
    13  H    0.155937
    14  H    0.194251
    15  O   -0.612121
    16  O   -0.612121
    17  H    0.437628
    18  H    0.437628
 Sum of ESP charges =   0.00000
 ESP charges with hydrogens summed into heavy atoms:
               1
     1  C   -0.059837
     2  C    0.397794
     3  C   -0.156452
     4  C   -0.011793
     5  S    0.004779
     8  C   -0.059837
     9  C    0.397794
    10  S    0.004779
    11  C   -0.156452
    12  C   -0.011793
    15  O   -0.174492
    16  O   -0.174492
 Charge=   0.00000 Dipole=    -0.0000     0.0000     0.0014 Tot=     0.0014
 -----------------------------------------------------------------

              Electrostatic Properties (Atomic Units)

 -----------------------------------------------------------------
    Center     Electric         -------- Electric Field --------
               Potential          X             Y             Z
 -----------------------------------------------------------------
    1 Atom    -14.738276
    2 Atom    -14.706341
    3 Atom    -14.767573
    4 Atom    -14.747855
    5 Atom    -59.225198
    6 Atom     -1.085287
    7 Atom     -1.079354
    8 Atom    -14.738276
    9 Atom    -14.706341
   10 Atom    -59.225198
   11 Atom    -14.767573
   12 Atom    -14.747855
   13 Atom     -1.085287
   14 Atom     -1.079354
   15 Atom    -22.328387
   16 Atom    -22.328387
   17 Atom     -0.963905
   18 Atom     -0.963905
 -----------------------------------------------------------------
 Calling FoFJK, ICntrl=      2127 FMM=F ISym2X=0 I1Cent= 0 IOpClX= 0 NMat=1 NMatS=1 NMatT=0.
 ***** Axes restored to original set *****
 -------------------------------------------------------------------
 Center     Atomic                   Forces (Hartrees/Bohr)
 Number     Number              X              Y              Z
 -------------------------------------------------------------------
      1        6          -0.013158207   -0.005059964   -0.000004953
      2        6           0.002552751    0.000112460    0.000006651
      3        6           0.005147734   -0.003796719   -0.000000752
      4        6           0.003769730    0.006974474   -0.000003881
      5       16          -0.005750961    0.005996295    0.000006033
      6        1          -0.001333780    0.001523302    0.000000464
      7        1          -0.000284421   -0.000032007    0.000000290
      8        6           0.013158207    0.005059964   -0.000004778
      9        6          -0.002552750   -0.000112460    0.000006383
     10       16           0.005750961   -0.005996295    0.000006077
     11        6          -0.005147734    0.003796720   -0.000000717
     12        6          -0.003769730   -0.006974474   -0.000003909
     13        1           0.001333779   -0.001523302    0.000000446
     14        1           0.000284421    0.000032007    0.000000278
     15        8           0.006159442    0.005761810   -0.000004279
     16        8          -0.006159439   -0.005761812   -0.000003957
     17        1          -0.001345357    0.012894793    0.000000236
     18        1           0.001345352   -0.012894790    0.000000369
 -------------------------------------------------------------------
 Cartesian Forces:  Max     0.013158207 RMS     0.004797656

 GradGradGradGradGradGradGradGradGradGradGradGradGradGradGradGradGradGrad
 Berny optimization.
 FormGI is forming the generalized inverse of G from B-inverse, IUseBI=4.
 Internal  Forces:  Max     0.021824708 RMS     0.004515785
 Search for a local minimum.
 Step number   1 out of a maximum of   97
 All quantities printed in internal units (Hartrees-Bohrs-Radians)
 Mixed Optimization -- RFO/linear search
 Second derivative matrix not updated -- first step.
 ITU=  0
     Eigenvalues ---    0.01511   0.01609   0.01609   0.01688   0.01688
     Eigenvalues ---    0.01987   0.01987   0.02100   0.02100   0.02113
     Eigenvalues ---    0.02113   0.02173   0.02173   0.02275   0.02275
     Eigenvalues ---    0.16000   0.16000   0.16000   0.16000   0.16000
     Eigenvalues ---    0.16000   0.22532   0.22532   0.24749   0.24749
     Eigenvalues ---    0.25000   0.25000   0.25000   0.25000   0.29143
     Eigenvalues ---    0.29143   0.32171   0.32171   0.35945   0.35945
     Eigenvalues ---    0.36108   0.36108   0.39085   0.40753   0.40753
     Eigenvalues ---    0.45570   0.45570   0.50101   0.50101   0.52226
     Eigenvalues ---    0.52226   0.55473   0.55473
 RFO step:  Lambda=-7.61847568D-03 EMin= 1.51092729D-02
 Linear search not attempted -- first point.
 Iteration  1 RMS(Cart)=  0.04137819 RMS(Int)=  0.00249440
 Iteration  2 RMS(Cart)=  0.00252877 RMS(Int)=  0.00000277
 Iteration  3 RMS(Cart)=  0.00000220 RMS(Int)=  0.00000244
 Iteration  4 RMS(Cart)=  0.00000000 RMS(Int)=  0.00000244
 Variable       Old X    -DE/DX   Delta X   Delta X   Delta X     New X
                                 (Linear)    (Quad)   (Total)
    R1        2.62118  -0.01176   0.00000  -0.02467  -0.02467   2.59651
    R2        3.32335  -0.00632   0.00000  -0.02054  -0.02054   3.30281
    R3        2.72816   0.00208   0.00000   0.00522   0.00522   2.73338
    R4        2.69003  -0.00419   0.00000  -0.01037  -0.01037   2.67967
    R5        2.57684  -0.00854   0.00000  -0.01612  -0.01612   2.56071
    R6        2.58219  -0.00698   0.00000  -0.01324  -0.01324   2.56895
    R7        2.04168   0.00151   0.00000   0.00412   0.00412   2.04580
    R8        3.26175  -0.00588   0.00000  -0.01665  -0.01665   3.24509
    R9        2.03912   0.00015   0.00000   0.00041   0.00041   2.03954
   R10        2.62118  -0.01176   0.00000  -0.02467  -0.02467   2.59651
   R11        3.32335  -0.00632   0.00000  -0.02054  -0.02054   3.30281
   R12        2.69003  -0.00419   0.00000  -0.01037  -0.01037   2.67967
   R13        2.57684  -0.00854   0.00000  -0.01612  -0.01612   2.56071
   R14        3.26175  -0.00588   0.00000  -0.01665  -0.01665   3.24509
   R15        2.58219  -0.00698   0.00000  -0.01324  -0.01324   2.56895
   R16        2.04168   0.00151   0.00000   0.00412   0.00412   2.04580
   R17        2.03912   0.00015   0.00000   0.00041   0.00041   2.03954
   R18        1.81414  -0.00483   0.00000  -0.00859  -0.00859   1.80555
   R19        1.81414  -0.00483   0.00000  -0.00859  -0.00859   1.80555
    A1        1.90639   0.00042   0.00000   0.00097   0.00097   1.90736
    A2        2.23296  -0.00040   0.00000  -0.00121  -0.00122   2.23175
    A3        2.14384  -0.00002   0.00000   0.00025   0.00024   2.14408
    A4        1.99480   0.00126   0.00000   0.00320   0.00320   1.99800
    A5        2.08497   0.00275   0.00000   0.01151   0.01151   2.09648
    A6        2.20341  -0.00401   0.00000  -0.01471  -0.01471   2.18870
    A7        1.95572  -0.00066   0.00000  -0.00372  -0.00372   1.95200
    A8        2.17384  -0.00104   0.00000  -0.00634  -0.00634   2.16750
    A9        2.15362   0.00171   0.00000   0.01006   0.01006   2.16368
   A10        1.96177  -0.00039   0.00000  -0.00046  -0.00047   1.96130
   A11        2.23094  -0.00005   0.00000  -0.00125  -0.00124   2.22970
   A12        2.09048   0.00044   0.00000   0.00171   0.00171   2.09219
   A13        1.60610  -0.00063   0.00000   0.00002   0.00002   1.60612
   A14        2.23296  -0.00040   0.00000  -0.00121  -0.00122   2.23175
   A15        2.14384  -0.00002   0.00000   0.00025   0.00024   2.14408
   A16        1.90639   0.00042   0.00000   0.00097   0.00097   1.90736
   A17        1.99480   0.00126   0.00000   0.00320   0.00320   1.99800
   A18        2.08497   0.00275   0.00000   0.01151   0.01151   2.09648
   A19        2.20341  -0.00401   0.00000  -0.01471  -0.01471   2.18870
   A20        1.60610  -0.00063   0.00000   0.00002   0.00002   1.60612
   A21        1.95572  -0.00066   0.00000  -0.00372  -0.00372   1.95200
   A22        2.17384  -0.00104   0.00000  -0.00634  -0.00634   2.16750
   A23        2.15362   0.00171   0.00000   0.01006   0.01006   2.16368
   A24        1.96177  -0.00039   0.00000  -0.00046  -0.00047   1.96130
   A25        2.09048   0.00044   0.00000   0.00171   0.00171   2.09219
   A26        2.23094  -0.00005   0.00000  -0.00125  -0.00124   2.22970
   A27        2.05933  -0.02182   0.00000  -0.13020  -0.13020   1.92912
   A28        2.05933  -0.02182   0.00000  -0.13020  -0.13020   1.92912
    D1        0.00007  -0.00000   0.00000  -0.00008  -0.00008  -0.00001
    D2       -3.14152  -0.00000   0.00000  -0.00004  -0.00004  -3.14156
    D3       -3.14157  -0.00000   0.00000  -0.00003  -0.00003   3.14159
    D4        0.00003   0.00000   0.00000   0.00001   0.00001   0.00003
    D5       -0.00007   0.00000   0.00000   0.00009   0.00009   0.00002
    D6        3.14156   0.00000   0.00000   0.00004   0.00004  -3.14158
    D7        3.14148  -0.00000   0.00000  -0.00002  -0.00002   3.14146
    D8       -0.00016   0.00000   0.00000   0.00004   0.00004  -0.00012
    D9       -0.00016   0.00000   0.00000   0.00004   0.00004  -0.00012
   D10        3.14138   0.00000   0.00000   0.00010   0.00010   3.14148
   D11       -0.00003   0.00000   0.00000   0.00002   0.00002  -0.00001
   D12        3.14157   0.00000   0.00000   0.00003   0.00003  -3.14159
   D13        3.14156  -0.00000   0.00000  -0.00002  -0.00002   3.14154
   D14       -0.00002  -0.00000   0.00000  -0.00001  -0.00001  -0.00003
   D15       -3.14122  -0.00000   0.00000  -0.00002  -0.00002  -3.14123
   D16        0.00037   0.00000   0.00000   0.00002   0.00002   0.00040
   D17       -0.00003   0.00000   0.00000   0.00005   0.00005   0.00003
   D18       -3.14157  -0.00000   0.00000  -0.00001  -0.00001  -3.14158
   D19        3.14155   0.00000   0.00000   0.00005   0.00005  -3.14158
   D20        0.00001  -0.00000   0.00000  -0.00002  -0.00002  -0.00001
   D21        0.00006  -0.00000   0.00000  -0.00009  -0.00009  -0.00003
   D22       -3.14158  -0.00000   0.00000  -0.00003  -0.00003   3.14158
   D23       -3.14156  -0.00000   0.00000  -0.00003  -0.00003   3.14159
   D24        0.00002   0.00000   0.00000   0.00001   0.00001   0.00003
   D25        0.00007  -0.00000   0.00000  -0.00008  -0.00008  -0.00001
   D26       -3.14152  -0.00000   0.00000  -0.00004  -0.00004  -3.14157
   D27        3.14156   0.00000   0.00000   0.00005   0.00005  -3.14158
   D28       -0.00007   0.00000   0.00000   0.00009   0.00009   0.00002
   D29       -0.00003   0.00000   0.00000   0.00002   0.00002  -0.00001
   D30        3.14157   0.00000   0.00000   0.00003   0.00003  -3.14159
   D31        3.14157  -0.00000   0.00000  -0.00002  -0.00002   3.14154
   D32       -0.00002  -0.00000   0.00000  -0.00001  -0.00001  -0.00003
   D33       -3.14125  -0.00000   0.00000  -0.00002  -0.00002  -3.14126
   D34        0.00034   0.00000   0.00000   0.00002   0.00002   0.00037
   D35        0.00006  -0.00000   0.00000  -0.00009  -0.00009  -0.00003
   D36       -3.14158  -0.00000   0.00000  -0.00003  -0.00003   3.14158
   D37       -0.00003   0.00000   0.00000   0.00005   0.00005   0.00003
   D38       -3.14157  -0.00000   0.00000  -0.00001  -0.00001  -3.14158
   D39        3.14156   0.00000   0.00000   0.00005   0.00005  -3.14158
   D40        0.00001  -0.00000   0.00000  -0.00002  -0.00002  -0.00001
         Item               Value     Threshold  Converged?
 Maximum Force            0.021825     0.000450     NO 
 RMS     Force            0.004516     0.000300     NO 
 Maximum Displacement     0.245721     0.001800     NO 
 RMS     Displacement     0.041631     0.001200     NO 
 Predicted change in Energy=-3.957284D-03
 GradGradGradGradGradGradGradGradGradGradGradGradGradGradGradGradGradGrad

                          Input orientation:                          
 ---------------------------------------------------------------------
 Center     Atomic      Atomic             Coordinates (Angstroms)
 Number     Number       Type             X           Y           Z
 ---------------------------------------------------------------------
      1          6           0       -0.597000   -0.408218   -0.000076
      2          6           0       -1.905484    0.011054   -0.000010
      3          6           0       -2.858799   -1.038691   -0.000034
      4          6           0       -2.264686   -2.261427   -0.000134
      5         16           0       -0.550734   -2.155378   -0.000157
      6          1           0       -3.930711   -0.886992    0.000004
      7          1           0       -2.743442   -3.228708   -0.000182
      8          6           0        0.597000    0.408218   -0.000075
      9          6           0        1.905484   -0.011054   -0.000002
     10         16           0        0.550734    2.155378   -0.000162
     11          6           0        2.858799    1.038691   -0.000026
     12          6           0        2.264686    2.261427   -0.000133
     13          1           0        3.930711    0.886992    0.000017
     14          1           0        2.743442    3.228708   -0.000183
     15          8           0       -2.195373    1.334754    0.000026
     16          8           0        2.195373   -1.334754    0.000043
     17          1           0        3.141111   -1.470666    0.000386
     18          1           0       -3.141111    1.470666    0.000392
 ---------------------------------------------------------------------
                    Distance matrix (angstroms):
                    1          2          3          4          5
     1  C    0.000000
     2  C    1.374016   0.000000
     3  C    2.348028   1.418018   0.000000
     4  C    2.493103   2.300695   1.359432   0.000000
     5  S    1.747773   2.555148   2.564012   1.717230   0.000000
     6  H    3.367916   2.215408   1.082593   2.159795   3.610132
     7  H    3.544345   3.346376   2.193053   1.079277   2.441313
     8  C    1.446445   2.533805   3.746478   3.913598   2.808793
     9  C    2.533805   3.811033   4.873852   4.738618   3.260542
    10  S    2.808793   3.260542   4.671937   5.237820   4.449253
    11  C    3.746478   4.873852   6.083293   6.094332   4.671937
    12  C    3.913598   4.738618   6.094332   6.400893   5.237820
    13  H    4.709325   5.901563   7.057316   6.949496   5.416583
    14  H    4.938196   5.653832   7.042429   7.431213   6.311892
    15  O    2.364899   1.355071   2.464422   3.596850   3.858220
    16  O    2.942077   4.316044   5.062836   4.555310   2.866100
    17  H    3.886164   5.259622   6.015441   5.463328   3.754804
    18  H    3.162705   1.912391   2.525188   3.833620   4.456260
                    6          7          8          9         10
     6  H    0.000000
     7  H    2.625498   0.000000
     8  C    4.709325   4.938196   0.000000
     9  C    5.901563   5.653832   1.374016   0.000000
    10  S    5.416583   6.311892   1.747773   2.555148   0.000000
    11  C    7.057316   7.042429   2.348028   1.418018   2.564012
    12  C    6.949496   7.431213   2.493103   2.300695   1.717230
    13  H    8.059093   7.841129   3.367916   2.215408   3.610132
    14  H    7.841129   8.473731   3.544345   3.346376   2.441313
    15  O    2.819141   4.596256   2.942077   4.316044   2.866100
    16  O    6.142426   5.289514   2.364899   1.355071   3.858220
    17  H    7.095868   6.141554   3.162705   1.912391   4.456260
    18  H    2.486366   4.716169   3.886164   5.259622   3.754804
                   11         12         13         14         15
    11  C    0.000000
    12  C    1.359432   0.000000
    13  H    1.082593   2.159795   0.000000
    14  H    2.193053   1.079277   2.625498   0.000000
    15  O    5.062836   4.555310   6.142426   5.289514   0.000000
    16  O    2.464422   3.596850   2.819141   4.596256   5.138573
    17  H    2.525188   3.833620   2.486366   4.716169   6.028967
    18  H    6.015441   5.463328   7.095868   6.141554   0.955454
                   16         17         18
    16  O    0.000000
    17  H    0.955454   0.000000
    18  H    6.028967   6.936696   0.000000
 Stoichiometry    C8H6O2S2
 Framework group  C1[X(C8H6O2S2)]
 Deg. of freedom    48
 Full point group                 C1      NOp   1
 Largest Abelian subgroup         C1      NOp   1
 Largest concise Abelian subgroup C1      NOp   1
                         Standard orientation:                         
 ---------------------------------------------------------------------
 Center     Atomic      Atomic             Coordinates (Angstroms)
 Number     Number       Type             X           Y           Z
 ---------------------------------------------------------------------
      1          6           0        0.723208   -0.004511   -0.000007
      2          6           0        1.559889   -1.094412    0.000059
      3          6           0        2.941367   -0.774578    0.000035
      4          6           0        3.149491    0.568827   -0.000065
      5         16           0        1.680329    1.457895   -0.000088
      6          1           0        3.736005   -1.509805    0.000073
      7          1           0        4.093941    1.091180   -0.000112
      8          6           0       -0.723208    0.004511   -0.000006
      9          6           0       -1.559889    1.094412    0.000067
     10         16           0       -1.680329   -1.457895   -0.000093
     11          6           0       -2.941367    0.774578    0.000043
     12          6           0       -3.149491   -0.568827   -0.000064
     13          1           0       -3.736005    1.509805    0.000087
     14          1           0       -4.093941   -1.091180   -0.000114
     15          8           0        1.044206   -2.347523    0.000096
     16          8           0       -1.044206    2.347523    0.000113
     17          1           0       -1.744129    2.997908    0.000455
     18          1           0        1.744129   -2.997908    0.000462
 ---------------------------------------------------------------------
 Rotational constants (GHZ):           1.3030638           0.6313185           0.4252770
 Standard basis: 6-311+G(d,p) (5D, 7F)
 There are   328 symmetry adapted cartesian basis functions of A   symmetry.
 There are   316 symmetry adapted basis functions of A   symmetry.
   316 basis functions,   508 primitive gaussians,   328 cartesian basis functions
    51 alpha electrons       51 beta electrons
       nuclear repulsion energy       875.0782859622 Hartrees.
 NAtoms=   18 NActive=   18 NUniq=   18 SFac= 1.00D+00 NAtFMM=   60 NAOKFM=F Big=F
 Integral buffers will be    131072 words long.
 Raffenetti 2 integral format.
 Two-electron integral symmetry is turned on.
 Nuclear repulsion after empirical dispersion term =      875.0697542999 Hartrees.
 One-electron integrals computed using PRISM.
 NBasis=   316 RedAO= T EigKep=  1.68D-06  NBF=   316
 NBsUse=   315 1.00D-06 EigRej=  6.57D-07 NBFU=   315
 Initial guess from the checkpoint file:  "gT2_innerdihscan.chk"
 B after Tr=    -0.000000   -0.000000    0.000000
         Rot=    0.999996   -0.000000   -0.000000   -0.002941 Ang=  -0.34 deg.
 ExpMin= 4.05D-02 ExpMax= 9.34D+04 ExpMxC= 3.17D+03 IAcc=2 IRadAn=         4 AccDes= 0.00D+00
 Harris functional with IExCor= 4639 and IRadAn=       4 diagonalized for initial guess.
 HarFok:  IExCor= 4639 AccDes= 0.00D+00 IRadAn=         4 IDoV= 1 UseB2=F ITyADJ=14
 ICtDFT=  3500011 ScaDFX=  1.000000  1.000000  1.000000  1.000000
 FoFCou: FMM=F IPFlag=           0 FMFlag=      100000 FMFlg1=           0
         NFxFlg=           0 DoJE=T BraDBF=F KetDBF=T FulRan=T
         wScrn=  0.000000 ICntrl=       500 IOpCl=  0 I1Cent=   200000004 NGrid=           0
         NMat0=    1 NMatS0=      1 NMatT0=    0 NMatD0=    1 NMtDS0=    0 NMtDT0=    0
 Petite list used in FoFCou.
 Requested convergence on RMS density matrix=1.00D-08 within 128 cycles.
 Requested convergence on MAX density matrix=1.00D-06.
 Requested convergence on             energy=1.00D-06.
 No special actions if energy rises.
 SCF Done:  E(RwB97XD) =  -1255.23437127     A.U. after   14 cycles
            NFock= 14  Conv=0.57D-08     -V/T= 2.0021
 Calling FoFJK, ICntrl=      2127 FMM=F ISym2X=0 I1Cent= 0 IOpClX= 0 NMat=1 NMatS=1 NMatT=0.
 ***** Axes restored to original set *****
 -------------------------------------------------------------------
 Center     Atomic                   Forces (Hartrees/Bohr)
 Number     Number              X              Y              Z
 -------------------------------------------------------------------
      1        6          -0.002184804   -0.004399056    0.000001810
      2        6           0.004560320   -0.000894269   -0.000000918
      3        6          -0.001157533   -0.000805255   -0.000001540
      4        6           0.001633100   -0.000845257    0.000002625
      5       16          -0.001088261    0.000631392   -0.000002469
      6        1          -0.000283611    0.000422391   -0.000000424
      7        1          -0.000075415   -0.000015261    0.000000597
      8        6           0.002184804    0.004399056    0.000001893
      9        6          -0.004560320    0.000894269   -0.000000970
     10       16           0.001088261   -0.000631392   -0.000002506
     11        6           0.001157533    0.000805255   -0.000001536
     12        6          -0.001633101    0.000845257    0.000002615
     13        1           0.000283611   -0.000422391   -0.000000423
     14        1           0.000075415    0.000015261    0.000000609
     15        8          -0.001380773    0.004679879   -0.000000263
     16        8           0.001380774   -0.004679880   -0.000000160
     17        1           0.001964850    0.000087842    0.000000499
     18        1          -0.001964850   -0.000087841    0.000000564
 -------------------------------------------------------------------
 Cartesian Forces:  Max     0.004679880 RMS     0.001727930

 GradGradGradGradGradGradGradGradGradGradGradGradGradGradGradGradGradGrad
 Berny optimization.
 Using GEDIIS/GDIIS optimizer.
 FormGI is forming the generalized inverse of G from B-inverse, IUseBI=4.
 Internal  Forces:  Max     0.005202742 RMS     0.001225035
 Search for a local minimum.
 Step number   2 out of a maximum of   97
 All quantities printed in internal units (Hartrees-Bohrs-Radians)
 Mixed Optimization -- RFO/linear search
 Update second derivatives using D2CorX and points    1    2
 DE= -3.99D-03 DEPred=-3.96D-03 R= 1.01D+00
 TightC=F SS=  1.41D+00  RLast= 1.97D-01 DXNew= 5.0454D-01 5.9139D-01
 Trust test= 1.01D+00 RLast= 1.97D-01 DXMaxT set to 5.05D-01
 ITU=  1  0
 Use linear search instead of GDIIS.
     Eigenvalues ---    0.01511   0.01608   0.01608   0.01687   0.01687
     Eigenvalues ---    0.01989   0.01989   0.02100   0.02100   0.02114
     Eigenvalues ---    0.02114   0.02173   0.02173   0.02276   0.02276
     Eigenvalues ---    0.14882   0.16000   0.16000   0.16000   0.16000
     Eigenvalues ---    0.16062   0.22533   0.22579   0.24634   0.24751
     Eigenvalues ---    0.24987   0.25000   0.25000   0.25050   0.29018
     Eigenvalues ---    0.29137   0.31927   0.32161   0.35926   0.35945
     Eigenvalues ---    0.36108   0.36108   0.39006   0.40741   0.41248
     Eigenvalues ---    0.45548   0.45581   0.50079   0.50092   0.52226
     Eigenvalues ---    0.54618   0.55473   0.58252
 RFO step:  Lambda=-3.79288318D-04 EMin= 1.51092727D-02
 Quartic linear search produced a step of  0.01548.
 Iteration  1 RMS(Cart)=  0.01016201 RMS(Int)=  0.00007515
 Iteration  2 RMS(Cart)=  0.00008263 RMS(Int)=  0.00000094
 Iteration  3 RMS(Cart)=  0.00000001 RMS(Int)=  0.00000094
 Variable       Old X    -DE/DX   Delta X   Delta X   Delta X     New X
                                 (Linear)    (Quad)   (Total)
    R1        2.59651   0.00073  -0.00038   0.00082   0.00044   2.59696
    R2        3.30281  -0.00052  -0.00032  -0.00259  -0.00291   3.29990
    R3        2.73338   0.00234   0.00008   0.00625   0.00633   2.73972
    R4        2.67967   0.00161  -0.00016   0.00375   0.00359   2.68326
    R5        2.56071   0.00520  -0.00025   0.00958   0.00933   2.57004
    R6        2.56895   0.00080  -0.00020   0.00117   0.00096   2.56992
    R7        2.04580   0.00034   0.00006   0.00109   0.00116   2.04696
    R8        3.24509  -0.00126  -0.00026  -0.00462  -0.00488   3.24022
    R9        2.03954   0.00005   0.00001   0.00015   0.00015   2.03969
   R10        2.59651   0.00073  -0.00038   0.00082   0.00044   2.59696
   R11        3.30281  -0.00052  -0.00032  -0.00259  -0.00291   3.29990
   R12        2.67967   0.00161  -0.00016   0.00375   0.00359   2.68326
   R13        2.56071   0.00520  -0.00025   0.00958   0.00933   2.57004
   R14        3.24509  -0.00126  -0.00026  -0.00462  -0.00488   3.24022
   R15        2.56895   0.00080  -0.00020   0.00117   0.00096   2.56992
   R16        2.04580   0.00034   0.00006   0.00109   0.00116   2.04696
   R17        2.03954   0.00005   0.00001   0.00015   0.00015   2.03969
   R18        1.80555   0.00193  -0.00013   0.00325   0.00312   1.80866
   R19        1.80555   0.00193  -0.00013   0.00325   0.00312   1.80866
    A1        1.90736   0.00071   0.00002   0.00289   0.00291   1.91027
    A2        2.23175  -0.00034  -0.00002  -0.00142  -0.00144   2.23031
    A3        2.14408  -0.00036   0.00000  -0.00147  -0.00147   2.14261
    A4        1.99800  -0.00140   0.00005  -0.00512  -0.00507   1.99294
    A5        2.09648   0.00396   0.00018   0.01618   0.01636   2.11284
    A6        2.18870  -0.00255  -0.00023  -0.01106  -0.01129   2.17741
    A7        1.95200   0.00034  -0.00006   0.00188   0.00182   1.95382
    A8        2.16750  -0.00056  -0.00010  -0.00365  -0.00375   2.16375
    A9        2.16368   0.00022   0.00016   0.00177   0.00193   2.16561
   A10        1.96130  -0.00008  -0.00001  -0.00056  -0.00057   1.96073
   A11        2.22970  -0.00002  -0.00002  -0.00017  -0.00019   2.22951
   A12        2.09219   0.00010   0.00003   0.00072   0.00075   2.09294
   A13        1.60612   0.00043   0.00000   0.00090   0.00090   1.60702
   A14        2.23175  -0.00034  -0.00002  -0.00142  -0.00144   2.23031
   A15        2.14408  -0.00036   0.00000  -0.00147  -0.00147   2.14261
   A16        1.90736   0.00071   0.00002   0.00289   0.00291   1.91027
   A17        1.99800  -0.00140   0.00005  -0.00512  -0.00507   1.99294
   A18        2.09648   0.00396   0.00018   0.01618   0.01636   2.11284
   A19        2.18870  -0.00255  -0.00023  -0.01106  -0.01129   2.17741
   A20        1.60612   0.00043   0.00000   0.00090   0.00090   1.60702
   A21        1.95200   0.00034  -0.00006   0.00188   0.00182   1.95382
   A22        2.16750  -0.00056  -0.00010  -0.00365  -0.00375   2.16375
   A23        2.16368   0.00022   0.00016   0.00177   0.00193   2.16561
   A24        1.96130  -0.00008  -0.00001  -0.00056  -0.00057   1.96073
   A25        2.09219   0.00010   0.00003   0.00072   0.00075   2.09294
   A26        2.22970  -0.00002  -0.00002  -0.00017  -0.00019   2.22951
   A27        1.92912  -0.00066  -0.00202  -0.00821  -0.01023   1.91889
   A28        1.92912  -0.00066  -0.00202  -0.00821  -0.01023   1.91889
    D1       -0.00001   0.00000  -0.00000   0.00005   0.00005   0.00004
    D2       -3.14156   0.00000  -0.00000   0.00003   0.00003  -3.14154
    D3        3.14159   0.00000  -0.00000   0.00003   0.00003  -3.14157
    D4        0.00003   0.00000   0.00000   0.00001   0.00001   0.00004
    D5        0.00002  -0.00000   0.00000  -0.00008  -0.00008  -0.00006
    D6       -3.14158  -0.00000   0.00000  -0.00006  -0.00006   3.14155
    D7        3.14146   0.00000  -0.00000   0.00006   0.00006   3.14152
    D8       -0.00012   0.00000   0.00000   0.00003   0.00003  -0.00009
    D9       -0.00012   0.00000   0.00000   0.00003   0.00004  -0.00009
   D10        3.14148   0.00000   0.00000   0.00001   0.00001   3.14149
   D11       -0.00001   0.00000   0.00000   0.00002   0.00002   0.00001
   D12       -3.14159  -0.00000   0.00000  -0.00001  -0.00001   3.14158
   D13        3.14154   0.00000  -0.00000   0.00004   0.00004   3.14158
   D14       -0.00003   0.00000  -0.00000   0.00001   0.00000  -0.00003
   D15       -3.14123  -0.00000  -0.00000   0.00000   0.00000  -3.14123
   D16        0.00040  -0.00000   0.00000  -0.00002  -0.00002   0.00038
   D17        0.00003  -0.00000   0.00000  -0.00009  -0.00008  -0.00006
   D18       -3.14158  -0.00000  -0.00000  -0.00003  -0.00003   3.14158
   D19       -3.14158  -0.00000   0.00000  -0.00005  -0.00005   3.14155
   D20       -0.00001   0.00000  -0.00000   0.00001   0.00001   0.00000
   D21       -0.00003   0.00000  -0.00000   0.00010   0.00010   0.00007
   D22        3.14158   0.00000  -0.00000   0.00004   0.00004  -3.14156
   D23        3.14159   0.00000  -0.00000   0.00003   0.00003  -3.14157
   D24        0.00003   0.00000   0.00000   0.00001   0.00001   0.00004
   D25       -0.00001   0.00000  -0.00000   0.00005   0.00005   0.00004
   D26       -3.14157   0.00000  -0.00000   0.00003   0.00003  -3.14154
   D27       -3.14158  -0.00000   0.00000  -0.00006  -0.00006   3.14155
   D28        0.00002  -0.00000   0.00000  -0.00008  -0.00008  -0.00006
   D29       -0.00001   0.00000   0.00000   0.00002   0.00002   0.00001
   D30       -3.14159  -0.00000   0.00000  -0.00002  -0.00001   3.14158
   D31        3.14154   0.00000  -0.00000   0.00004   0.00004   3.14159
   D32       -0.00003   0.00000  -0.00000   0.00000   0.00000  -0.00003
   D33       -3.14126  -0.00000  -0.00000   0.00000   0.00000  -3.14126
   D34        0.00037  -0.00000   0.00000  -0.00002  -0.00002   0.00035
   D35       -0.00003   0.00000  -0.00000   0.00010   0.00010   0.00007
   D36        3.14158   0.00000  -0.00000   0.00004   0.00004  -3.14156
   D37        0.00003  -0.00000   0.00000  -0.00009  -0.00009  -0.00006
   D38       -3.14158  -0.00000  -0.00000  -0.00003  -0.00003   3.14158
   D39       -3.14158  -0.00000   0.00000  -0.00005  -0.00005   3.14156
   D40       -0.00001   0.00000  -0.00000   0.00001   0.00001   0.00000
         Item               Value     Threshold  Converged?
 Maximum Force            0.005203     0.000450     NO 
 RMS     Force            0.001225     0.000300     NO 
 Maximum Displacement     0.043241     0.001800     NO 
 RMS     Displacement     0.010173     0.001200     NO 
 Predicted change in Energy=-1.917639D-04
 GradGradGradGradGradGradGradGradGradGradGradGradGradGradGradGradGradGrad

                          Input orientation:                          
 ---------------------------------------------------------------------
 Center     Atomic      Atomic             Coordinates (Angstroms)
 Number     Number       Type             X           Y           Z
 ---------------------------------------------------------------------
      1          6           0       -0.599427   -0.407631   -0.000090
      2          6           0       -1.906449    0.016940   -0.000055
      3          6           0       -2.859918   -1.035231   -0.000035
      4          6           0       -2.266501   -2.258873   -0.000040
      5         16           0       -0.555105   -2.153302   -0.000161
      6          1           0       -3.932026   -0.880571   -0.000000
      7          1           0       -2.746200   -3.225776   -0.000014
      8          6           0        0.599427    0.407631   -0.000089
      9          6           0        1.906449   -0.016940   -0.000047
     10         16           0        0.555105    2.153302   -0.000167
     11          6           0        2.859918    1.035231   -0.000027
     12          6           0        2.266501    2.258873   -0.000040
     13          1           0        3.932026    0.880571    0.000013
     14          1           0        2.746200    3.225776   -0.000015
     15          8           0       -2.213789    1.341766   -0.000063
     16          8           0        2.213789   -1.341766   -0.000047
     17          1           0        3.163993   -1.456480    0.000282
     18          1           0       -3.163993    1.456480    0.000289
 ---------------------------------------------------------------------
                    Distance matrix (angstroms):
                    1          2          3          4          5
     1  C    0.000000
     2  C    1.374251   0.000000
     3  C    2.345996   1.419918   0.000000
     4  C    2.491231   2.304119   1.359942   0.000000
     5  S    1.746234   2.556576   2.561688   1.714650   0.000000
     6  H    3.365989   2.215511   1.083206   2.161871   3.608800
     7  H    3.542679   3.349685   2.193494   1.079357   2.439488
     8  C    1.449795   2.536149   3.748189   3.914561   2.809150
     9  C    2.536149   3.813048   4.873927   4.737064   3.259338
    10  S    2.809150   3.259338   4.672165   5.237246   4.447405
    11  C    3.748189   4.873927   6.083036   6.093545   4.672165
    12  C    3.914561   4.737064   6.093545   6.399855   5.237246
    13  H    4.711001   5.902003   7.056968   6.948226   5.416524
    14  H    4.939116   5.651882   7.041643   7.430245   6.311346
    15  O    2.380452   1.360007   2.463249   3.601024   3.868686
    16  O    2.964252   4.338483   5.082958   4.573192   2.885370
    17  H    3.906843   5.280184   6.038622   5.489454   3.783814
    18  H    3.170474   1.911464   2.510196   3.822216   4.453855
                    6          7          8          9         10
     6  H    0.000000
     7  H    2.627958   0.000000
     8  C    4.711001   4.939116   0.000000
     9  C    5.902003   5.651882   1.374251   0.000000
    10  S    5.416524   6.311346   1.746234   2.556576   0.000000
    11  C    7.056968   7.041643   2.345996   1.419918   2.561688
    12  C    6.948226   7.430245   2.491231   2.304119   1.714650
    13  H    8.058842   7.839693   3.365989   2.215511   3.608800
    14  H    7.839693   8.472838   3.542679   3.349685   2.439488
    15  O    2.809114   4.598467   2.964252   4.338483   2.885370
    16  O    6.163094   5.305750   2.380452   1.360007   3.868686
    17  H    7.119351   6.169343   3.170474   1.911464   4.453855
    18  H    2.460017   4.700858   3.906843   5.280184   3.783814
                   11         12         13         14         15
    11  C    0.000000
    12  C    1.359942   0.000000
    13  H    1.083206   2.161871   0.000000
    14  H    2.193494   1.079357   2.627958   0.000000
    15  O    5.082958   4.573192   6.163094   5.305750   0.000000
    16  O    2.463249   3.601024   2.809114   4.598467   5.177333
    17  H    2.510196   3.822216   2.460017   4.700858   6.062237
    18  H    6.038622   5.489454   7.119351   6.169343   0.957104
                   16         17         18
    16  O    0.000000
    17  H    0.957104   0.000000
    18  H    6.062237   6.966258   0.000000
 Stoichiometry    C8H6O2S2
 Framework group  C1[X(C8H6O2S2)]
 Deg. of freedom    48
 Full point group                 C1      NOp   1
 Largest Abelian subgroup         C1      NOp   1
 Largest concise Abelian subgroup C1      NOp   1
                         Standard orientation:                         
 ---------------------------------------------------------------------
 Center     Atomic      Atomic             Coordinates (Angstroms)
 Number     Number       Type             X           Y           Z
 ---------------------------------------------------------------------
      1          6           0        0.724895   -0.002041   -0.000010
      2          6           0        1.563878   -1.090468    0.000025
      3          6           0        2.944915   -0.760464    0.000044
      4          6           0        3.146089    0.584516    0.000039
      5         16           0        1.674017    1.463735   -0.000081
      6          1           0        3.742425   -1.493481    0.000079
      7          1           0        4.087964    1.111662    0.000065
      8          6           0       -0.724895    0.002041   -0.000009
      9          6           0       -1.563878    1.090468    0.000033
     10         16           0       -1.674017   -1.463735   -0.000087
     11          6           0       -2.944915    0.760464    0.000052
     12          6           0       -3.146089   -0.584516    0.000040
     13          1           0       -3.742425    1.493481    0.000093
     14          1           0       -4.087964   -1.111662    0.000064
     15          8           0        1.069464   -2.357423    0.000016
     16          8           0       -1.069464    2.357423    0.000033
     17          1           0       -1.788919    2.988638    0.000361
     18          1           0        1.788919   -2.988638    0.000368
 ---------------------------------------------------------------------
 Rotational constants (GHZ):           1.2958187           0.6305184           0.4241405
 Standard basis: 6-311+G(d,p) (5D, 7F)
 There are   328 symmetry adapted cartesian basis functions of A   symmetry.
 There are   316 symmetry adapted basis functions of A   symmetry.
   316 basis functions,   508 primitive gaussians,   328 cartesian basis functions
    51 alpha electrons       51 beta electrons
       nuclear repulsion energy       874.0780164979 Hartrees.
 NAtoms=   18 NActive=   18 NUniq=   18 SFac= 1.00D+00 NAtFMM=   60 NAOKFM=F Big=F
 Integral buffers will be    131072 words long.
 Raffenetti 2 integral format.
 Two-electron integral symmetry is turned on.
 Nuclear repulsion after empirical dispersion term =      874.0694899638 Hartrees.
 One-electron integrals computed using PRISM.
 NBasis=   316 RedAO= T EigKep=  1.69D-06  NBF=   316
 NBsUse=   315 1.00D-06 EigRej=  6.69D-07 NBFU=   315
 Initial guess from the checkpoint file:  "gT2_innerdihscan.chk"
 B after Tr=     0.000000    0.000000   -0.000000
         Rot=    0.999997   -0.000000    0.000000   -0.002582 Ang=  -0.30 deg.
 ExpMin= 4.05D-02 ExpMax= 9.34D+04 ExpMxC= 3.17D+03 IAcc=2 IRadAn=         4 AccDes= 0.00D+00
 Harris functional with IExCor= 4639 and IRadAn=       4 diagonalized for initial guess.
 HarFok:  IExCor= 4639 AccDes= 0.00D+00 IRadAn=         4 IDoV= 1 UseB2=F ITyADJ=14
 ICtDFT=  3500011 ScaDFX=  1.000000  1.000000  1.000000  1.000000
 FoFCou: FMM=F IPFlag=           0 FMFlag=      100000 FMFlg1=           0
         NFxFlg=           0 DoJE=T BraDBF=F KetDBF=T FulRan=T
         wScrn=  0.000000 ICntrl=       500 IOpCl=  0 I1Cent=   200000004 NGrid=           0
         NMat0=    1 NMatS0=      1 NMatT0=    0 NMatD0=    1 NMtDS0=    0 NMtDT0=    0
 Petite list used in FoFCou.
 Requested convergence on RMS density matrix=1.00D-08 within 128 cycles.
 Requested convergence on MAX density matrix=1.00D-06.
 Requested convergence on             energy=1.00D-06.
 No special actions if energy rises.
 SCF Done:  E(RwB97XD) =  -1255.23458251     A.U. after   12 cycles
            NFock= 12  Conv=0.53D-08     -V/T= 2.0021
 Calling FoFJK, ICntrl=      2127 FMM=F ISym2X=0 I1Cent= 0 IOpClX= 0 NMat=1 NMatS=1 NMatT=0.
 ***** Axes restored to original set *****
 -------------------------------------------------------------------
 Center     Atomic                   Forces (Hartrees/Bohr)
 Number     Number              X              Y              Z
 -------------------------------------------------------------------
      1        6          -0.001024153   -0.000542048   -0.000003110
      2        6           0.001587933   -0.000495201   -0.000000273
      3        6          -0.000660859   -0.000441412    0.000003152
      4        6          -0.000056468   -0.000182089   -0.000004376
      5       16           0.000293609    0.000548200    0.000004995
      6        1           0.000026634    0.000067563    0.000000289
      7        1          -0.000042101    0.000040037   -0.000000723
      8        6           0.001024153    0.000542048   -0.000003116
      9        6          -0.001587934    0.000495201   -0.000000282
     10       16          -0.000293609   -0.000548200    0.000005052
     11        6           0.000660859    0.000441412    0.000003172
     12        6           0.000056468    0.000182089   -0.000004435
     13        1          -0.000026634   -0.000067563    0.000000299
     14        1           0.000042101   -0.000040037   -0.000000722
     15        8          -0.000253292    0.000854980   -0.000000252
     16        8           0.000253292   -0.000854980   -0.000000221
     17        1           0.000200359   -0.000090663    0.000000269
     18        1          -0.000200359    0.000090663    0.000000283
 -------------------------------------------------------------------
 Cartesian Forces:  Max     0.001587934 RMS     0.000472046

 GradGradGradGradGradGradGradGradGradGradGradGradGradGradGradGradGradGrad
 Berny optimization.
 Using GEDIIS/GDIIS optimizer.
 FormGI is forming the generalized inverse of G from B-inverse, IUseBI=4.
 Internal  Forces:  Max     0.001022572 RMS     0.000236532
 Search for a local minimum.
 Step number   3 out of a maximum of   97
 All quantities printed in internal units (Hartrees-Bohrs-Radians)
 Mixed Optimization -- En-DIIS/RFO-DIIS
 Update second derivatives using D2CorX and points    1    2    3
 DE= -2.11D-04 DEPred=-1.92D-04 R= 1.10D+00
 TightC=F SS=  1.41D+00  RLast= 3.81D-02 DXNew= 8.4853D-01 1.1425D-01
 Trust test= 1.10D+00 RLast= 3.81D-02 DXMaxT set to 5.05D-01
 ITU=  1  1  0
 Use linear search instead of GDIIS.
     Eigenvalues ---    0.01511   0.01606   0.01606   0.01688   0.01688
     Eigenvalues ---    0.01991   0.01992   0.02101   0.02101   0.02115
     Eigenvalues ---    0.02115   0.02173   0.02173   0.02277   0.02277
     Eigenvalues ---    0.14914   0.16000   0.16000   0.16000   0.16004
     Eigenvalues ---    0.16155   0.22533   0.22582   0.23515   0.24751
     Eigenvalues ---    0.24817   0.25000   0.25000   0.25052   0.29084
     Eigenvalues ---    0.29136   0.32163   0.32516   0.35935   0.35945
     Eigenvalues ---    0.36108   0.36110   0.38748   0.40741   0.40829
     Eigenvalues ---    0.45493   0.45543   0.49674   0.50093   0.52226
     Eigenvalues ---    0.53683   0.55473   0.56550
 RFO step:  Lambda=-8.92973677D-06 EMin= 1.51092658D-02
 Quartic linear search produced a step of  0.12136.
 Iteration  1 RMS(Cart)=  0.00081393 RMS(Int)=  0.00000049
 Iteration  2 RMS(Cart)=  0.00000067 RMS(Int)=  0.00000012
 Variable       Old X    -DE/DX   Delta X   Delta X   Delta X     New X
                                 (Linear)    (Quad)   (Total)
    R1        2.59696  -0.00055   0.00005  -0.00157  -0.00152   2.59544
    R2        3.29990  -0.00044  -0.00035  -0.00163  -0.00198   3.29792
    R3        2.73972   0.00031   0.00077   0.00027   0.00104   2.74076
[...]
     11          6           0       -2.945632    0.758791    0.000011
     12          6           0       -3.145604   -0.586454   -0.000093
     13          1           0       -3.743174    1.491773    0.000022
     14          1           0       -4.087105   -1.114218   -0.000156
     15          8           0        1.071110   -2.358500    0.000039
     16          8           0       -1.071110    2.358500    0.000057
     17          1           0       -1.792018    2.988395    0.000384
     18          1           0        1.792018   -2.988395    0.000392
 ---------------------------------------------------------------------
 Rotational constants (GHZ):           1.2953137           0.6306941           0.4241658

 **********************************************************************

            Population analysis using the SCF density.

 **********************************************************************

 Orbital symmetries:
       Occupied  (A) (A) (A) (A) (A) (A) (A) (A) (A) (A) (A) (A)
                 (A) (A) (A) (A) (A) (A) (A) (A) (A) (A) (A) (A)
                 (A) (A) (A) (A) (A) (A) (A) (A) (A) (A) (A) (A)
                 (A) (A) (A) (A) (A) (A) (A) (A) (A) (A) (A) (A)
                 (A) (A) (A)
       Virtual   (A) (A) (A) (A) (A) (A) (A) (A) (A) (A) (A) (A)
                 (A) (A) (A) (A) (A) (A) (A) (A) (A) (A) (A) (A)
                 (A) (A) (A) (A) (A) (A) (A) (A) (A) (A) (A) (A)
                 (A) (A) (A) (A) (A) (A) (A) (A) (A) (A) (A) (A)
                 (A) (A) (A) (A) (A) (A) (A) (A) (A) (A) (A) (A)
                 (A) (A) (A) (A) (A) (A) (A) (A) (A) (A) (A) (A)
                 (A) (A) (A) (A) (A) (A) (A) (A) (A) (A) (A) (A)
                 (A) (A) (A) (A) (A) (A) (A) (A) (A) (A) (A) (A)
                 (A) (A) (A) (A) (A) (A) (A) (A) (A) (A) (A) (A)
                 (A) (A) (A) (A) (A) (A) (A) (A) (A) (A) (A) (A)
                 (A) (A) (A) (A) (A) (A) (A) (A) (A) (A) (A) (A)
                 (A) (A) (A) (A) (A) (A) (A) (A) (A) (A) (A) (A)
                 (A) (A) (A) (A) (A) (A) (A) (A) (A) (A) (A) (A)
                 (A) (A) (A) (A) (A) (A) (A) (A) (A) (A) (A) (A)
                 (A) (A) (A) (A) (A) (A) (A) (A) (A) (A) (A) (A)
                 (A) (A) (A) (A) (A) (A) (A) (A) (A) (A) (A) (A)
                 (A) (A) (A) (A) (A) (A) (A) (A) (A) (A) (A) (A)
                 (A) (A) (A) (A) (A) (A) (A) (A) (A) (A) (A) (A)
                 (A) (A) (A) (A) (A) (A) (A) (A) (A) (A) (A) (A)
                 (A) (A) (A) (A) (A) (A) (A) (A) (A) (A) (A) (A)
                 (A) (A) (A) (A) (A) (A) (A) (A) (A) (A) (A) (A)
                 (A) (A) (A) (A) (A) (A) (A) (A) (A) (A) (A) (A)
 The electronic state is 1-A.
 Alpha  occ. eigenvalues --  -89.04097 -89.04097 -19.28632 -19.28632 -10.34931
 Alpha  occ. eigenvalues --  -10.34931 -10.31943 -10.31906 -10.31390 -10.31390
 Alpha  occ. eigenvalues --  -10.29357 -10.29357  -8.08126  -8.08125  -6.02974
 Alpha  occ. eigenvalues --   -6.02974  -6.02575  -6.02575  -6.02206  -6.02206
 Alpha  occ. eigenvalues --   -1.17693  -1.17608  -0.99528  -0.97814  -0.87142
 Alpha  occ. eigenvalues --   -0.83413  -0.82590  -0.80554  -0.70374  -0.69443
 Alpha  occ. eigenvalues --   -0.68378  -0.64590  -0.62503  -0.57796  -0.56775
 Alpha  occ. eigenvalues --   -0.55521  -0.52603  -0.51899  -0.51065  -0.50418
 Alpha  occ. eigenvalues --   -0.46322  -0.46245  -0.45575  -0.43919  -0.43813
 Alpha  occ. eigenvalues --   -0.42371  -0.41241  -0.35933  -0.31494  -0.31347
 Alpha  occ. eigenvalues --   -0.25958
 Alpha virt. eigenvalues --    0.02689   0.05102   0.05853   0.06763   0.06766
 Alpha virt. eigenvalues --    0.07342   0.08520   0.09763   0.09798   0.10041
 Alpha virt. eigenvalues --    0.10626   0.11885   0.12053   0.12132   0.12145
 Alpha virt. eigenvalues --    0.13017   0.13326   0.14644   0.14688   0.15607
 Alpha virt. eigenvalues --    0.16726   0.17024   0.17472   0.17618   0.19143
 Alpha virt. eigenvalues --    0.19267   0.19964   0.20093   0.20094   0.21011
 Alpha virt. eigenvalues --    0.21681   0.22097   0.22097   0.22841   0.23253
 Alpha virt. eigenvalues --    0.23572   0.24202   0.24210   0.25025   0.25359
 Alpha virt. eigenvalues --    0.25485   0.25792   0.26230   0.26318   0.28079
 Alpha virt. eigenvalues --    0.28095   0.28894   0.30163   0.31198   0.31998
 Alpha virt. eigenvalues --    0.33383   0.33393   0.33438   0.33903   0.34153
 Alpha virt. eigenvalues --    0.35539   0.35995   0.36699   0.38006   0.38500
 Alpha virt. eigenvalues --    0.41289   0.41304   0.41970   0.42448   0.43146
 Alpha virt. eigenvalues --    0.44200   0.44642   0.45618   0.48542   0.51182
 Alpha virt. eigenvalues --    0.52264   0.53717   0.53827   0.54507   0.57717
 Alpha virt. eigenvalues --    0.57740   0.58549   0.60395   0.62624   0.62642
 Alpha virt. eigenvalues --    0.64507   0.64600   0.65144   0.66089   0.66697
 Alpha virt. eigenvalues --    0.68069   0.68633   0.69265   0.70296   0.70606
 Alpha virt. eigenvalues --    0.72037   0.74449   0.76801   0.78690   0.80187
 Alpha virt. eigenvalues --    0.80636   0.82517   0.83097   0.83574   0.84264
 Alpha virt. eigenvalues --    0.84629   0.86178   0.86254   0.87348   0.90229
 Alpha virt. eigenvalues --    0.90465   0.91117   0.92520   0.94960   0.95069
 Alpha virt. eigenvalues --    0.95839   0.97281   0.97308   0.98869   1.01514
 Alpha virt. eigenvalues --    1.04755   1.06260   1.08069   1.09508   1.09900
 Alpha virt. eigenvalues --    1.11134   1.11738   1.13805   1.14518   1.15262
 Alpha virt. eigenvalues --    1.15848   1.15952   1.16401   1.18645   1.21845
 Alpha virt. eigenvalues --    1.24831   1.25780   1.27227   1.32371   1.33284
 Alpha virt. eigenvalues --    1.34401   1.38602   1.41072   1.43925   1.44868
 Alpha virt. eigenvalues --    1.47699   1.48962   1.50069   1.53682   1.55771
 Alpha virt. eigenvalues --    1.61101   1.62746   1.63921   1.65804   1.68118
 Alpha virt. eigenvalues --    1.69017   1.70473   1.71661   1.75191   1.75301
 Alpha virt. eigenvalues --    1.75575   1.78716   1.83232   1.84995   1.85838
 Alpha virt. eigenvalues --    1.87110   1.87443   1.88409   1.88887   1.89196
 Alpha virt. eigenvalues --    1.94728   1.95990   1.97555   1.98893   2.02192
 Alpha virt. eigenvalues --    2.04989   2.06545   2.08154   2.10410   2.11716
 Alpha virt. eigenvalues --    2.11924   2.15279   2.15922   2.18291   2.19551
 Alpha virt. eigenvalues --    2.20265   2.20886   2.24807   2.25240   2.25777
 Alpha virt. eigenvalues --    2.26309   2.28295   2.29871   2.47082   2.50612
 Alpha virt. eigenvalues --    2.55018   2.60987   2.62941   2.64389   2.71115
 Alpha virt. eigenvalues --    2.71911   2.73646   2.75672   2.75995   2.78158
 Alpha virt. eigenvalues --    2.80584   2.82549   2.83403   2.84109   2.85285
 Alpha virt. eigenvalues --    2.88934   2.94664   3.02126   3.06213   3.08990
 Alpha virt. eigenvalues --    3.09758   3.09912   3.17690   3.17869   3.24688
 Alpha virt. eigenvalues --    3.25171   3.26922   3.27693   3.31707   3.34089
 Alpha virt. eigenvalues --    3.41234   3.42167   3.45339   3.46078   3.52322
 Alpha virt. eigenvalues --    3.58263   3.58433   3.61203   3.66311   3.85686
 Alpha virt. eigenvalues --    3.98405   4.00292   4.08006   4.17577   4.18545
 Alpha virt. eigenvalues --    4.29558   4.39336   4.67814   5.10743   5.11538
 Alpha virt. eigenvalues --    5.58766   5.59559   5.84684   5.88495   8.11513
 Alpha virt. eigenvalues --    8.12642  17.42764  17.43828  17.61636  17.64430
 Alpha virt. eigenvalues --   17.67770  17.73045  23.63106  23.83246  23.94845
 Alpha virt. eigenvalues --   23.97015  24.19938  24.21555  24.30481  24.31041
 Alpha virt. eigenvalues --   50.08166  50.09482 189.36051 189.37795
          Condensed to atoms (all electrons):
               1          2          3          4          5          6
     1  C   10.176029  -5.157441   1.447228  -0.946732   0.679135   0.028065
     2  C   -5.157441  19.578097  -7.123194   2.182538  -2.124029  -0.151728
     3  C    1.447228  -7.123194  12.973237  -1.200932   0.341921   0.448665
     4  C   -0.946732   2.182538  -1.200932   6.334516  -0.143023   0.021199
     5  S    0.679135  -2.124029   0.341921  -0.143023  17.164858   0.012887
     6  H    0.028065  -0.151728   0.448665   0.021199   0.012887   0.506142
     7  H    0.047240  -0.076756   0.079762   0.340605  -0.028134  -0.003680
     8  C    0.329492  -1.540121   0.074018  -0.240945   0.640135  -0.001179
     9  C   -1.540121   1.127672  -0.412543  -0.159264  -0.419676   0.000456
    10  S    0.640135  -0.419676  -0.005256   0.076070   0.130482   0.000313
    11  C    0.074018  -0.412542  -0.106720   0.008428  -0.005256   0.000038
    12  C   -0.240945  -0.159264   0.008428  -0.028677   0.076070   0.000061
    13  H   -0.001179   0.000456   0.000038   0.000061   0.000313   0.000000
    14  H    0.001369   0.003924   0.000337  -0.000009  -0.000764   0.000000
    15  O    0.003436  -0.147532   0.124906  -0.005619   0.037393  -0.002689
    16  O   -0.017796   0.013955  -0.003164   0.014639  -0.049794   0.000029
    17  H    0.036515   0.004582   0.002280  -0.002809   0.002068   0.000000
    18  H    0.007483   0.272175  -0.287732   0.008364  -0.007028   0.002126
               7          8          9         10         11         12
     1  C    0.047240   0.329492  -1.540121   0.640135   0.074018  -0.240945
     2  C   -0.076756  -1.540121   1.127672  -0.419676  -0.412542  -0.159264
     3  C    0.079762   0.074018  -0.412543  -0.005256  -0.106720   0.008428
     4  C    0.340605  -0.240945  -0.159264   0.076070   0.008428  -0.028677
     5  S   -0.028134   0.640135  -0.419676   0.130482  -0.005256   0.076070
     6  H   -0.003680  -0.001179   0.000456   0.000313   0.000038   0.000061
     7  H    0.450906   0.001369   0.003924  -0.000764   0.000337  -0.000009
     8  C    0.001369  10.176029  -5.157441   0.679135   1.447228  -0.946732
     9  C    0.003924  -5.157441  19.578098  -2.124029  -7.123194   2.182538
    10  S   -0.000764   0.679135  -2.124029  17.164858   0.341921  -0.143023
    11  C    0.000337   1.447228  -7.123194   0.341921  12.973237  -1.200932
    12  C   -0.000009  -0.946732   2.182538  -0.143023  -1.200932   6.334516
    13  H    0.000000   0.028065  -0.151728   0.012887   0.448665   0.021199
    14  H    0.000000   0.047240  -0.076756  -0.028134   0.079762   0.340605
    15  O   -0.000269  -0.017796   0.013955  -0.049794  -0.003164   0.014639
    16  O   -0.000042   0.003436  -0.147532   0.037393   0.124906  -0.005619
    17  H   -0.000003   0.007483   0.272175  -0.007028  -0.287732   0.008364
    18  H    0.000017   0.036515   0.004582   0.002068   0.002280  -0.002809
              13         14         15         16         17         18
     1  C   -0.001179   0.001369   0.003436  -0.017796   0.036515   0.007483
     2  C    0.000456   0.003924  -0.147532   0.013955   0.004582   0.272175
     3  C    0.000038   0.000337   0.124906  -0.003164   0.002280  -0.287732
     4  C    0.000061  -0.000009  -0.005619   0.014639  -0.002809   0.008364
     5  S    0.000313  -0.000764   0.037393  -0.049794   0.002068  -0.007028
     6  H    0.000000   0.000000  -0.002689   0.000029   0.000000   0.002126
     7  H    0.000000   0.000000  -0.000269  -0.000042  -0.000003   0.000017
     8  C    0.028065   0.047240  -0.017796   0.003436   0.007483   0.036515
     9  C   -0.151728  -0.076756   0.013955  -0.147532   0.272175   0.004582
    10  S    0.012887  -0.028134  -0.049794   0.037393  -0.007028   0.002068
    11  C    0.448665   0.079762  -0.003164   0.124906  -0.287732   0.002280
    12  C    0.021199   0.340605   0.014639  -0.005619   0.008364  -0.002809
    13  H    0.506142  -0.003680   0.000029  -0.002689   0.002126   0.000000
    14  H   -0.003680   0.450906  -0.000042  -0.000269   0.000017  -0.000003
    15  O    0.000029  -0.000042   8.069885  -0.000983  -0.000044   0.201695
    16  O   -0.002689  -0.000269  -0.000983   8.069885   0.201695  -0.000044
    17  H    0.002126   0.000017  -0.000044   0.201695   0.482801  -0.000000
    18  H    0.000000  -0.000003   0.201695  -0.000044  -0.000000   0.482801
 Mulliken charges:
               1
     1  C    0.434070
     2  C    0.128886
     3  C   -0.361280
     4  C   -0.258409
     5  S   -0.307560
     6  H    0.139296
     7  H    0.185496
     8  C    0.434070
     9  C    0.128886
    10  S   -0.307560
    11  C   -0.361280
    12  C   -0.258409
    13  H    0.139296
    14  H    0.185496
    15  O   -0.238007
    16  O   -0.238007
    17  H    0.277507
    18  H    0.277507
 Sum of Mulliken charges =  -0.00000
 Mulliken charges with hydrogens summed into heavy atoms:
               1
     1  C    0.434070
     2  C    0.128886
     3  C   -0.221984
     4  C   -0.072912
     5  S   -0.307560
     8  C    0.434070
     9  C    0.128886
    10  S   -0.307560
    11  C   -0.221984
    12  C   -0.072912
    15  O    0.039500
    16  O    0.039500
 Electronic spatial extent (au):  <R**2>=           2458.7226
 Charge=             -0.0000 electrons
 Dipole moment (field-independent basis, Debye):
    X=             -0.0000    Y=              0.0000    Z=              0.0011  Tot=              0.0011
 Quadrupole moment (field-independent basis, Debye-Ang):
   XX=            -63.0866   YY=            -71.8819   ZZ=            -89.0797
   XY=            -10.2722   XZ=              0.0000   YZ=             -0.0001
 Traceless Quadrupole moment (field-independent basis, Debye-Ang):
   XX=             11.5961   YY=              2.8008   ZZ=            -14.3970
   XY=            -10.2722   XZ=              0.0000   YZ=             -0.0001
 Octapole moment (field-independent basis, Debye-Ang**2):
  XXX=             -0.0000  YYY=              0.0000  ZZZ=              0.0013  XYY=             -0.0000
  XXY=              0.0000  XXZ=              0.0016  XZZ=              0.0000  YZZ=             -0.0000
  YYZ=              0.0143  XYZ=             -0.0097
 Hexadecapole moment (field-independent basis, Debye-Ang**3):
 XXXX=          -1909.1007 YYYY=           -839.5440 ZZZZ=           -106.1257 XXXY=            -36.3901
 XXXZ=              0.0006 YYYX=           -146.0319 YYYZ=             -0.0023 ZZZX=              0.0008
 ZZZY=             -0.0012 XXYY=           -394.5187 XXZZ=           -434.5227 YYZZ=           -195.6665
 XXYZ=             -0.0004 YYXZ=              0.0008 ZZXY=             -7.0274
 N-N= 8.740538170256D+02 E-N=-4.714408302760D+03  KE= 1.252573982993D+03
 Breneman (CHELPG) radii used.
 Generate Potential Derived Charges using the Breneman model, NDens= 1.
 Grid spacing= 0.300 Box extension= 2.800
 NStep X,Y,Z=   47     40     20   Total possible points=       37600
 Number of Points to Fit=   12408

 **********************************************************************

            Electrostatic Properties Using The SCF Density

 **********************************************************************

       Atomic Center    1 is at   0.725171 -0.001908 -0.000015
       Atomic Center    2 is at   1.563800 -1.089592  0.000028
       Atomic Center    3 is at   2.945632 -0.758791  0.000003
       Atomic Center    4 is at   3.145604  0.586454 -0.000093
       Atomic Center    5 is at   1.672208  1.463967 -0.000012
       Atomic Center    6 is at   3.743174 -1.491773  0.000009
       Atomic Center    7 is at   4.087105  1.114218 -0.000154
       Atomic Center    8 is at  -0.725171  0.001908 -0.000014
       Atomic Center    9 is at  -1.563800  1.089592  0.000037
       Atomic Center   10 is at  -1.672208 -1.463967 -0.000016
       Atomic Center   11 is at  -2.945632  0.758791  0.000011
       Atomic Center   12 is at  -3.145604 -0.586454 -0.000093
       Atomic Center   13 is at  -3.743174  1.491773  0.000022
       Atomic Center   14 is at  -4.087105 -1.114218 -0.000156
       Atomic Center   15 is at   1.071110 -2.358500  0.000039
       Atomic Center   16 is at  -1.071110  2.358500  0.000057
       Atomic Center   17 is at  -1.792018  2.988395  0.000384
       Atomic Center   18 is at   1.792018 -2.988395  0.000392
   12408 points will be used for fitting atomic charges
 Fitting point charges to electrostatic potential
 Charges from ESP fit, RMS=   0.00464 RRMS=   0.26510:
 ESP charges:
               1
     1  C   -0.041661
     2  C    0.365029
     3  C   -0.329015
     4  C   -0.180301
     5  S   -0.001849
     6  H    0.158399
     7  H    0.187980
     8  C   -0.041661
     9  C    0.365029
    10  S   -0.001849
    11  C   -0.329015
    12  C   -0.180301
    13  H    0.158399
    14  H    0.187980
    15  O   -0.585478
    16  O   -0.585478
    17  H    0.426896
    18  H    0.426896
 Sum of ESP charges =   0.00000
 ESP charges with hydrogens summed into heavy atoms:
               1
     1  C   -0.041661
     2  C    0.365029
     3  C   -0.170616
     4  C    0.007679
     5  S   -0.001849
     8  C   -0.041661
     9  C    0.365029
    10  S   -0.001849
    11  C   -0.170616
    12  C    0.007679
    15  O   -0.158582
    16  O   -0.158582
 Charge=   0.00000 Dipole=    -0.0000     0.0000     0.0013 Tot=     0.0013
 -----------------------------------------------------------------

              Electrostatic Properties (Atomic Units)

 -----------------------------------------------------------------
    Center     Electric         -------- Electric Field --------
               Potential          X             Y             Z
 -----------------------------------------------------------------
    1 Atom    -14.739913
    2 Atom    -14.710540
    3 Atom    -14.767731
    4 Atom    -14.747884
    5 Atom    -59.224652
    6 Atom     -1.082437
    7 Atom     -1.078240
    8 Atom    -14.739913
    9 Atom    -14.710540
   10 Atom    -59.224652
   11 Atom    -14.767731
   12 Atom    -14.747884
   13 Atom     -1.082437
   14 Atom     -1.078240
   15 Atom    -22.327754
   16 Atom    -22.327754
   17 Atom     -0.968284
   18 Atom     -0.968284
 -----------------------------------------------------------------
 1\1\GINC-CX1-141-15-2\FOpt\RwB97XD\6-311+G(d,p)\C8H6O2S2\NS5018\06-Feb
 -2020\0\\# opt wb97xd/6-311+g(d,p) geom=connectivity pop=ChelpG\\Title
  Card Required\\0,1\C,-0.5998180979,-0.4075469295,-0.0000560484\C,-1.9
 058802034,0.017373273,-0.0000127276\C,-2.8601687988,-1.0353487359,-0.0
 000375356\C,-2.2663242107,-2.2588769953,-0.0001339182\S,-0.5547370096,
 -2.1521491326,-0.0000529567\H,-3.9321934332,-0.8801095658,-0.000032062
 8\H,-2.7459300081,-3.2257987804,-0.0001945792\C,0.5998180981,0.4075469
 282,-0.0000547401\C,1.9058802032,-0.0173732744,-0.0000041216\S,0.55473
 70102,2.1521491314,-0.000056932\C,2.8601687989,1.0353487342,-0.0000294
 616\C,2.2663242114,2.2588769933,-0.0001336222\H,3.9321934333,0.8801095
 643,-0.0000183528\H,2.7459300093,3.2257987781,-0.000196455\O,-2.214972
 2452,1.343016998,-0.0000015359\O,2.2149722444,-1.3430169992,0.00001589
 39\H,3.16556506,-1.4563762941,0.0003436278\H,-3.1655650517,1.456376296
 7,0.000350788\\Version=ES64L-G16RevA.03\State=1-A\HF=-1255.2345899\RMS
 D=4.291e-09\RMSF=7.476e-05\Dipole=0.,0.,0.0004301\Quadrupole=13.655082
 2,-2.9512893,-10.7037929,0.2705277,-0.0000792,0.000052\PG=C01 [X(C8H6O
 2S2)]\\@


            ARSENIC

 FOR SMELTER FUMES HAVE I BEEN NAMED,
    I AM AN EVIL POISONOUS SMOKE...
 BUT WHEN FROM POISON I AM FREED,
    THROUGH ART AND SLEIGHT OF HAND,
 THEN CAN I CURE BOTH MAN AND BEAST,
    FROM DIRE DISEASE OFTTIMES DIRECT THEM;
 BUT PREPARE ME CORRECTLY, AND TAKE GREAT CARE
    THAT YOU FAITHFULLY KEEP WATCHFUL GUARD OVER ME;
 FOR ELSE I AM POISON, AND POISON REMAIN,
    THAT PIERCES THE HEART OF MANY A ONE.

 ATTRIBUTED TO THE PROBABLY MYTHICAL 15TH
 CENTURY MONK, BASILIUS VALENTINUS
 Job cpu time:       0 days  1 hours  0 minutes 26.4 seconds.
 Elapsed time:       0 days  0 hours  7 minutes 33.9 seconds.
 File lengths (MBytes):  RWF=     65 Int=      0 D2E=      0 Chk=      8 Scr=      1
 Normal termination of Gaussian 16 at Thu Feb  6 07:50:13 2020.
