 Entering Gaussian System, Link 0=g16
 Input=B.gjf
 Output=B.log
 Initial command:
 /apps/gaussian/g16-a03/l1.exe "/tmp/pbs.1260838.pbs/Gau-26937.inp" -scrdir="/tmp/pbs.1260838.pbs/"
 Entering Link 1 = /apps/gaussian/g16-a03/l1.exe PID=     26938.
  
 Copyright (c) 1988,1990,1992,1993,1995,1998,2003,2009,2016,
            Gaussian, Inc.  All Rights Reserved.
  
 This is part of the Gaussian(R) 16 program.  It is based on
 the Gaussian(R) 09 system (copyright 2009, Gaussian, Inc.),
 the Gaussian(R) 03 system (copyright 2003, Gaussian, Inc.),
 the Gaussian(R) 98 system (copyright 1998, Gaussian, Inc.),
 the Gaussian(R) 94 system (copyright 1995, Gaussian, Inc.),
 the Gaussian 92(TM) system (copyright 1992, Gaussian, Inc.),
 the Gaussian 90(TM) system (copyright 1990, Gaussian, Inc.),
 the Gaussian 88(TM) system (copyright 1988, Gaussian, Inc.),
 the Gaussian 86(TM) system (copyright 1986, Carnegie Mellon
 University), and the Gaussian 82(TM) system (copyright 1983,
 Carnegie Mellon University). Gaussian is a federally registered
 trademark of Gaussian, Inc.
  
 This software contains proprietary and confidential information,
 including trade secrets, belonging to Gaussian, Inc.
  
 This software is provided under written license and may be
 used, copied, transmitted, or stored only in accord with that
 written license.
  
 The following legend is applicable only to US Government
 contracts under FAR:
  
                    RESTRICTED RIGHTS LEGEND
  
 Use, reproduction and disclosure by the US Government is
 subject to restrictions as set forth in subparagraphs (a)
 and (c) of the Commercial Computer Software - Restricted
 Rights clause in FAR 52.227-19.
  
 Gaussian, Inc.
 340 Quinnipiac St., Bldg. 40, Wallingford CT 06492
  
  
 ---------------------------------------------------------------
 Warning -- This program may not be used in any manner that
 competes with the business of Gaussian, Inc. or will provide
 assistance to any competitor of Gaussian, Inc.  The licensee
 of this program is prohibited from giving any competitor of
 Gaussian, Inc. access to this program.  By using this program,
 the user acknowledges that Gaussian, Inc. is engaged in the
 business of creating and licensing software in the field of
 computational chemistry and represents and warrants to the
 licensee that it is not a competitor of Gaussian, Inc. and that
 it will not use this program in any manner prohibited above.
 ---------------------------------------------------------------
  

 Cite this work as:
 Gaussian 16, Revision A.03,
 M. J. Frisch, G. W. Trucks, H. B. Schlegel, G. E. Scuseria, 
 M. A. Robb, J. R. Cheeseman, G. Scalmani, V. Barone, 
 G. A. Petersson, H. Nakatsuji, X. Li, M. Caricato, A. V. Marenich, 
 J. Bloino, B. G. Janesko, R. Gomperts, B. Mennucci, H. P. Hratchian, 
 J. V. Ortiz, A. F. Izmaylov, J. L. Sonnenberg, D. Williams-Young, 
 F. Ding, F. Lipparini, F. Egidi, J. Goings, B. Peng, A. Petrone, 
 T. Henderson, D. Ranasinghe, V. G. Zakrzewski, J. Gao, N. Rega, 
 G. Zheng, W. Liang, M. Hada, M. Ehara, K. Toyota, R. Fukuda, 
 J. Hasegawa, M. Ishida, T. Nakajima, Y. Honda, O. Kitao, H. Nakai, 
 T. Vreven, K. Throssell, J. A. Montgomery, Jr., J. E. Peralta, 
 F. Ogliaro, M. J. Bearpark, J. J. Heyd, E. N. Brothers, K. N. Kudin, 
 V. N. Staroverov, T. A. Keith, R. Kobayashi, J. Normand, 
 K. Raghavachari, A. P. Rendell, J. C. Burant, S. S. Iyengar, 
 J. Tomasi, M. Cossi, J. M. Millam, M. Klene, C. Adamo, R. Cammi, 
 J. W. Ochterski, R. L. Martin, K. Morokuma, O. Farkas, 
 J. B. Foresman, and D. J. Fox, Gaussian, Inc., Wallingford CT, 2016.
 
 ******************************************
 Gaussian 16:  ES64L-G16RevA.03 25-Dec-2016
                31-Mar-2020 
 ******************************************
 %mem=50GB
 %nprocshared=8
 Will use up to    8 processors via shared memory.
 ---------------------
 #p opt b3lyp/6-311g**
 ---------------------
 1/18=20,19=15,26=3,38=1/1,3;
 2/9=110,12=2,17=6,18=5,40=1/2;
 3/5=4,6=6,7=101,11=2,25=1,30=1,71=1,74=-5/1,2,3;
 4//1;
 5/5=2,38=5/2;
 6/7=2,8=2,9=2,10=2,28=1/1;
 7//1,2,3,16;
 1/18=20,19=15,26=3/3(2);
 2/9=110/2;
 99//99;
 2/9=110/2;
 3/5=4,6=6,7=101,11=2,25=1,30=1,71=1,74=-5/1,2,3;
 4/5=5,16=3,69=1/1;
 5/5=2,38=5/2;
 7//1,2,3,16;
 1/18=20,19=15,26=3/3(-5);
 2/9=110/2;
 6/7=2,8=2,9=2,10=2,19=2,28=1/1;
 99/9=1/99;
 Leave Link    1 at Tue Mar 31 08:55:31 2020, MaxMem=  6710886400 cpu:               0.3 elap:               0.0
 (Enter /apps/gaussian/g16-a03/l101.exe)
 -----
 B.gjf
 -----
 Symbolic Z-matrix:
 Charge =  0 Multiplicity = 1
 C                    -0.706     0.154     0. 
 C                    -1.31      1.401    -0.001 
 C                    -2.733     1.362     0.001 
 C                    -3.212     0.086     0.004 
 S                    -1.948    -1.091     0.004 
 O                    -0.536     2.524    -0.003 
 H                    -3.366     2.237     0.002 
 C                     0.706    -0.154    -0.002 
 C                     1.31     -1.401    -0.001 
 C                     2.733    -1.363    -0.003 
 C                     3.212    -0.086    -0.006 
 S                     1.949     1.091    -0.005 
 O                     0.536    -2.524     0.002 
 H                     3.368    -2.237    -0.003 
 C                    -1.096     3.821     0.061 
 H                    -1.724     3.935     0.952 
 H                    -1.726     3.932    -0.829 
 C                    -0.103     4.701     0.05 
 H                     0.534     4.586     0.938 
 H                     0.531     4.583    -0.84 
 C                    -0.755     5.957     0.049 
 H                    -1.371     6.018    -0.824 
 H                    -1.325     6.017     0.953 
 C                     0.138     7.057     0.046 
 H                     0.785     7.04      0.934 
 H                     0.782     7.037    -0.844 
 C                    -0.08      8.85      0.021 
 H                    -0.708     8.964     0.912 
 H                    -0.71      8.961    -0.869 
 C                     1.007     9.909     0.017 
 H                     1.644     9.794     0.905 
 H                     1.641     9.791    -0.873 
 O                     0.355     11.165    0.016 
 C                     1.248     12.265    0.013 
 H                     1.895     12.248    0.901 
 H                     1.892     12.245   -0.877 
 C                     0.413     13.533    0.012 
 H                    -0.233     13.55     0.902 
 H                    -0.236     13.549   -0.875 
 O                     1.305     14.63     0.009 
 C                     0.654     15.887    0.009 
 H                     0.019     16.001    0.898 
 H                     0.016     15.999   -0.879 
 C                     1.727     16.96     0.006 
 H                     2.364     16.844   -0.884 
 H                     2.367     16.846    0.894 
 O                     1.075     18.214    0.005 
 C                     1.975     19.303    0.002 
 H                     2.617     19.296   -0.891 
 H                     1.378     20.216    0.001 
 H                     2.62      19.299    0.893 
 C                     1.291    -3.739     0.071 
 H                     1.923    -3.853     0.958 
 H                     1.914    -3.849    -0.823 
 C                     0.203    -4.798     0.074 
 H                    -0.426    -4.683     0.967 
 H                    -0.435    -4.679    -0.812 
 C                     0.855    -6.054     0.068 
 H                     1.473    -6.118     0.938 
 H                     1.421    -6.11     -0.838 
 C                    -0.037    -7.154     0.071 
 H                    -0.679    -7.137     0.963 
 H                    -0.687    -7.133    -0.815 
 C                     0.836    -8.434     0.06 
 H                     1.468    -8.548     0.947 
 H                     1.46     -8.544    -0.834 
 C                    -0.252    -9.493     0.063 
 H                    -0.881    -9.378     0.956 
 H                    -0.889    -9.374    -0.823 
 O                     0.4      -10.749    0.057 
 C                    -0.492    -11.849    0.06 
 H                    -1.134    -11.832    0.952 
 H                    -1.141    -11.828   -0.826 
 C                     0.343    -13.117    0.053 
 H                     0.995    -13.136    0.938 
 H                     0.986    -13.131   -0.839 
 O                    -0.551    -14.214    0.055 
 C                     0.1      -15.471    0.05 
 H                     0.742    -15.585    0.936 
 H                     0.733    -15.582   -0.842 
 C                    -0.974    -16.544    0.053 
 H                    -1.616    -16.426   -0.832 
 H                    -1.607    -16.43     0.946 
 O                    -0.322    -17.798    0.047 
 C                    -1.221    -18.887    0.049 
 H                    -1.869    -18.879   -0.839 
 H                    -0.624    -19.8      0.045 
 H                    -1.86     -18.882    0.945 
 H                    -4.242    -0.176     0.006 
 H                     4.204     0.384    -0.009 
 
 ITRead=  0  0  0  0  0  0  0  0  0  0  0  0  0  0  0  0  0  0  0  0
 ITRead=  0  0  0  0  0  0  0  0  0  0  0  0  0  0  0  0  0  0  0  0
 ITRead=  0  0  0  0  0  0  0  0  0  0  0  0  0  0  0  0  0  0  0  0
 ITRead=  0  0  0  0  0  0  0  0  0  0  0  0  0  0  0  0  0  0  0  0
 ITRead=  0  0  0  0  0  0  0  0  0  0
 MicOpt= -1 -1 -1 -1 -1 -1 -1 -1 -1 -1 -1 -1 -1 -1 -1 -1 -1 -1 -1 -1
 MicOpt= -1 -1 -1 -1 -1 -1 -1 -1 -1 -1 -1 -1 -1 -1 -1 -1 -1 -1 -1 -1
 MicOpt= -1 -1 -1 -1 -1 -1 -1 -1 -1 -1 -1 -1 -1 -1 -1 -1 -1 -1 -1 -1
 MicOpt= -1 -1 -1 -1 -1 -1 -1 -1 -1 -1 -1 -1 -1 -1 -1 -1 -1 -1 -1 -1
 MicOpt= -1 -1 -1 -1 -1 -1 -1 -1 -1 -1
 NAtoms=     90 NQM=       90 NQMF=       0 NMMI=      0 NMMIF=      0
                NMic=       0 NMicF=      0.
                    Isotopes and Nuclear Properties:
 (Nuclear quadrupole moments (NQMom) in fm**2, nuclear magnetic moments (NMagM)
  in nuclear magnetons)

  Atom         1           2           3           4           5           6           7           8           9          10
 IAtWgt=          12          12          12          12          32          16           1          12          12          12
 AtmWgt=  12.0000000  12.0000000  12.0000000  12.0000000  31.9720718  15.9949146   1.0078250  12.0000000  12.0000000  12.0000000
 NucSpn=           0           0           0           0           0           0           1           0           0           0
 AtZEff=  -0.0000000  -0.0000000  -0.0000000  -0.0000000  -0.0000000  -0.0000000  -0.0000000  -0.0000000  -0.0000000  -0.0000000
 NQMom=    0.0000000   0.0000000   0.0000000   0.0000000   0.0000000   0.0000000   0.0000000   0.0000000   0.0000000   0.0000000
 NMagM=    0.0000000   0.0000000   0.0000000   0.0000000   0.0000000   0.0000000   2.7928460   0.0000000   0.0000000   0.0000000
 AtZNuc=   6.0000000   6.0000000   6.0000000   6.0000000  16.0000000   8.0000000   1.0000000   6.0000000   6.0000000   6.0000000

  Atom        11          12          13          14          15          16          17          18          19          20
 IAtWgt=          12          32          16           1          12           1           1          12           1           1
 AtmWgt=  12.0000000  31.9720718  15.9949146   1.0078250  12.0000000   1.0078250   1.0078250  12.0000000   1.0078250   1.0078250
 NucSpn=           0           0           0           1           0           1           1           0           1           1
 AtZEff=  -0.0000000  -0.0000000  -0.0000000  -0.0000000  -0.0000000  -0.0000000  -0.0000000  -0.0000000  -0.0000000  -0.0000000
 NQMom=    0.0000000   0.0000000   0.0000000   0.0000000   0.0000000   0.0000000   0.0000000   0.0000000   0.0000000   0.0000000
 NMagM=    0.0000000   0.0000000   0.0000000   2.7928460   0.0000000   2.7928460   2.7928460   0.0000000   2.7928460   2.7928460
 AtZNuc=   6.0000000  16.0000000   8.0000000   1.0000000   6.0000000   1.0000000   1.0000000   6.0000000   1.0000000   1.0000000

  Atom        21          22          23          24          25          26          27          28          29          30
 IAtWgt=          12           1           1          12           1           1          12           1           1          12
 AtmWgt=  12.0000000   1.0078250   1.0078250  12.0000000   1.0078250   1.0078250  12.0000000   1.0078250   1.0078250  12.0000000
 NucSpn=           0           1           1           0           1           1           0           1           1           0
 AtZEff=  -0.0000000  -0.0000000  -0.0000000  -0.0000000  -0.0000000  -0.0000000  -0.0000000  -0.0000000  -0.0000000  -0.0000000
 NQMom=    0.0000000   0.0000000   0.0000000   0.0000000   0.0000000   0.0000000   0.0000000   0.0000000   0.0000000   0.0000000
 NMagM=    0.0000000   2.7928460   2.7928460   0.0000000   2.7928460   2.7928460   0.0000000   2.7928460   2.7928460   0.0000000
 AtZNuc=   6.0000000   1.0000000   1.0000000   6.0000000   1.0000000   1.0000000   6.0000000   1.0000000   1.0000000   6.0000000

  Atom        31          32          33          34          35          36          37          38          39          40
 IAtWgt=           1           1          16          12           1           1          12           1           1          16
 AtmWgt=   1.0078250   1.0078250  15.9949146  12.0000000   1.0078250   1.0078250  12.0000000   1.0078250   1.0078250  15.9949146
 NucSpn=           1           1           0           0           1           1           0           1           1           0
 AtZEff=  -0.0000000  -0.0000000  -0.0000000  -0.0000000  -0.0000000  -0.0000000  -0.0000000  -0.0000000  -0.0000000  -0.0000000
 NQMom=    0.0000000   0.0000000   0.0000000   0.0000000   0.0000000   0.0000000   0.0000000   0.0000000   0.0000000   0.0000000
 NMagM=    2.7928460   2.7928460   0.0000000   0.0000000   2.7928460   2.7928460   0.0000000   2.7928460   2.7928460   0.0000000
 AtZNuc=   1.0000000   1.0000000   8.0000000   6.0000000   1.0000000   1.0000000   6.0000000   1.0000000   1.0000000   8.0000000

  Atom        41          42          43          44          45          46          47          48          49          50
 IAtWgt=          12           1           1          12           1           1          16          12           1           1
 AtmWgt=  12.0000000   1.0078250   1.0078250  12.0000000   1.0078250   1.0078250  15.9949146  12.0000000   1.0078250   1.0078250
 NucSpn=           0           1           1           0           1           1           0           0           1           1
 AtZEff=  -0.0000000  -0.0000000  -0.0000000  -0.0000000  -0.0000000  -0.0000000  -0.0000000  -0.0000000  -0.0000000  -0.0000000
 NQMom=    0.0000000   0.0000000   0.0000000   0.0000000   0.0000000   0.0000000   0.0000000   0.0000000   0.0000000   0.0000000
 NMagM=    0.0000000   2.7928460   2.7928460   0.0000000   2.7928460   2.7928460   0.0000000   0.0000000   2.7928460   2.7928460
 AtZNuc=   6.0000000   1.0000000   1.0000000   6.0000000   1.0000000   1.0000000   8.0000000   6.0000000   1.0000000   1.0000000

  Atom        51          52          53          54          55          56          57          58          59          60
 IAtWgt=           1          12           1           1          12           1           1          12           1           1
 AtmWgt=   1.0078250  12.0000000   1.0078250   1.0078250  12.0000000   1.0078250   1.0078250  12.0000000   1.0078250   1.0078250
 NucSpn=           1           0           1           1           0           1           1           0           1           1
 AtZEff=  -0.0000000  -0.0000000  -0.0000000  -0.0000000  -0.0000000  -0.0000000  -0.0000000  -0.0000000  -0.0000000  -0.0000000
 NQMom=    0.0000000   0.0000000   0.0000000   0.0000000   0.0000000   0.0000000   0.0000000   0.0000000   0.0000000   0.0000000
 NMagM=    2.7928460   0.0000000   2.7928460   2.7928460   0.0000000   2.7928460   2.7928460   0.0000000   2.7928460   2.7928460
 AtZNuc=   1.0000000   6.0000000   1.0000000   1.0000000   6.0000000   1.0000000   1.0000000   6.0000000   1.0000000   1.0000000

  Atom        61          62          63          64          65          66          67          68          69          70
 IAtWgt=          12           1           1          12           1           1          12           1           1          16
 AtmWgt=  12.0000000   1.0078250   1.0078250  12.0000000   1.0078250   1.0078250  12.0000000   1.0078250   1.0078250  15.9949146
 NucSpn=           0           1           1           0           1           1           0           1           1           0
 AtZEff=  -0.0000000  -0.0000000  -0.0000000  -0.0000000  -0.0000000  -0.0000000  -0.0000000  -0.0000000  -0.0000000  -0.0000000
 NQMom=    0.0000000   0.0000000   0.0000000   0.0000000   0.0000000   0.0000000   0.0000000   0.0000000   0.0000000   0.0000000
 NMagM=    0.0000000   2.7928460   2.7928460   0.0000000   2.7928460   2.7928460   0.0000000   2.7928460   2.7928460   0.0000000
 AtZNuc=   6.0000000   1.0000000   1.0000000   6.0000000   1.0000000   1.0000000   6.0000000   1.0000000   1.0000000   8.0000000

  Atom        71          72          73          74          75          76          77          78          79          80
 IAtWgt=          12           1           1          12           1           1          16          12           1           1
 AtmWgt=  12.0000000   1.0078250   1.0078250  12.0000000   1.0078250   1.0078250  15.9949146  12.0000000   1.0078250   1.0078250
 NucSpn=           0           1           1           0           1           1           0           0           1           1
 AtZEff=  -0.0000000  -0.0000000  -0.0000000  -0.0000000  -0.0000000  -0.0000000  -0.0000000  -0.0000000  -0.0000000  -0.0000000
 NQMom=    0.0000000   0.0000000   0.0000000   0.0000000   0.0000000   0.0000000   0.0000000   0.0000000   0.0000000   0.0000000
 NMagM=    0.0000000   2.7928460   2.7928460   0.0000000   2.7928460   2.7928460   0.0000000   0.0000000   2.7928460   2.7928460
 AtZNuc=   6.0000000   1.0000000   1.0000000   6.0000000   1.0000000   1.0000000   8.0000000   6.0000000   1.0000000   1.0000000

  Atom        81          82          83          84          85          86          87          88          89          90
 IAtWgt=          12           1           1          16          12           1           1           1           1           1
 AtmWgt=  12.0000000   1.0078250   1.0078250  15.9949146  12.0000000   1.0078250   1.0078250   1.0078250   1.0078250   1.0078250
 NucSpn=           0           1           1           0           0           1           1           1           1           1
 AtZEff=  -0.0000000  -0.0000000  -0.0000000  -0.0000000  -0.0000000  -0.0000000  -0.0000000  -0.0000000  -0.0000000  -0.0000000
 NQMom=    0.0000000   0.0000000   0.0000000   0.0000000   0.0000000   0.0000000   0.0000000   0.0000000   0.0000000   0.0000000
 NMagM=    0.0000000   2.7928460   2.7928460   0.0000000   0.0000000   2.7928460   2.7928460   2.7928460   2.7928460   2.7928460
 AtZNuc=   6.0000000   1.0000000   1.0000000   8.0000000   6.0000000   1.0000000   1.0000000   1.0000000   1.0000000   1.0000000
 Leave Link  101 at Tue Mar 31 08:55:31 2020, MaxMem=  6710886400 cpu:               3.6 elap:               0.5
 (Enter /apps/gaussian/g16-a03/l103.exe)

 GradGradGradGradGradGradGradGradGradGradGradGradGradGradGradGradGradGrad
 Berny optimization.
 Initialization pass.
                           ----------------------------
                           !    Initial Parameters    !
                           ! (Angstroms and Degrees)  !
 --------------------------                            --------------------------
 ! Name  Definition              Value          Derivative Info.                !
 --------------------------------------------------------------------------------
 ! R1    R(1,2)                  1.3856         estimate D2E/DX2                !
 ! R2    R(1,5)                  1.7586         estimate D2E/DX2                !
 ! R3    R(1,8)                  1.4452         estimate D2E/DX2                !
 ! R4    R(2,3)                  1.4235         estimate D2E/DX2                !
 ! R5    R(2,6)                  1.3639         estimate D2E/DX2                !
 ! R6    R(3,4)                  1.3629         estimate D2E/DX2                !
 ! R7    R(3,7)                  1.08           estimate D2E/DX2                !
 ! R8    R(4,5)                  1.7271         estimate D2E/DX2                !
 ! R9    R(4,89)                 1.0628         estimate D2E/DX2                !
 ! R10   R(6,15)                 1.4142         estimate D2E/DX2                !
 ! R11   R(8,9)                  1.3856         estimate D2E/DX2                !
 ! R12   R(8,12)                 1.7593         estimate D2E/DX2                !
 ! R13   R(9,10)                 1.4235         estimate D2E/DX2                !
 ! R14   R(9,13)                 1.3639         estimate D2E/DX2                !
 ! R15   R(10,11)                1.3639         estimate D2E/DX2                !
 ! R16   R(10,14)                1.0803         estimate D2E/DX2                !
 ! R17   R(11,12)                1.7264         estimate D2E/DX2                !
 ! R18   R(11,90)                1.0977         estimate D2E/DX2                !
 ! R19   R(13,52)                1.4321         estimate D2E/DX2                !
 ! R20   R(15,16)                1.096          estimate D2E/DX2                !
 ! R21   R(15,17)                1.096          estimate D2E/DX2                !
 ! R22   R(15,18)                1.3269         estimate D2E/DX2                !
 ! R23   R(18,19)                1.0989         estimate D2E/DX2                !
 ! R24   R(18,20)                1.0991         estimate D2E/DX2                !
 ! R25   R(18,21)                1.4151         estimate D2E/DX2                !
 ! R26   R(21,22)                1.0702         estimate D2E/DX2                !
 ! R27   R(21,23)                1.0704         estimate D2E/DX2                !
 ! R28   R(21,24)                1.4168         estimate D2E/DX2                !
 ! R29   R(24,25)                1.0988         estimate D2E/DX2                !
 ! R30   R(24,26)                1.0987         estimate D2E/DX2                !
 ! R31   R(24,27)                1.8064         estimate D2E/DX2                !
 ! R32   R(27,28)                1.096          estimate D2E/DX2                !
 ! R33   R(27,29)                1.096          estimate D2E/DX2                !
 ! R34   R(27,30)                1.5176         estimate D2E/DX2                !
 ! R35   R(30,31)                1.0989         estimate D2E/DX2                !
 ! R36   R(30,32)                1.0991         estimate D2E/DX2                !
 ! R37   R(30,33)                1.4151         estimate D2E/DX2                !
 ! R38   R(33,34)                1.4168         estimate D2E/DX2                !
 ! R39   R(34,35)                1.0988         estimate D2E/DX2                !
 ! R40   R(34,36)                1.0987         estimate D2E/DX2                !
 ! R41   R(34,37)                1.5182         estimate D2E/DX2                !
 ! R42   R(37,38)                1.0999         estimate D2E/DX2                !
 ! R43   R(37,39)                1.0992         estimate D2E/DX2                !
 ! R44   R(37,40)                1.4139         estimate D2E/DX2                !
 ! R45   R(40,41)                1.4156         estimate D2E/DX2                !
 ! R46   R(41,42)                1.0984         estimate D2E/DX2                !
 ! R47   R(41,43)                1.0992         estimate D2E/DX2                !
 ! R48   R(41,44)                1.5175         estimate D2E/DX2                !
 ! R49   R(44,45)                1.1006         estimate D2E/DX2                !
 ! R50   R(44,46)                1.1005         estimate D2E/DX2                !
 ! R51   R(44,47)                1.4134         estimate D2E/DX2                !
 ! R52   R(47,48)                1.4128         estimate D2E/DX2                !
 ! R53   R(48,49)                1.0998         estimate D2E/DX2                !
 ! R54   R(48,50)                1.0909         estimate D2E/DX2                !
 ! R55   R(48,51)                1.1            estimate D2E/DX2                !
 ! R56   R(52,53)                1.0951         estimate D2E/DX2                !
 ! R57   R(52,54)                1.0952         estimate D2E/DX2                !
 ! R58   R(52,55)                1.5183         estimate D2E/DX2                !
 ! R59   R(55,56)                1.0983         estimate D2E/DX2                !
 ! R60   R(55,57)                1.0983         estimate D2E/DX2                !
 ! R61   R(55,58)                1.4152         estimate D2E/DX2                !
 ! R62   R(58,59)                1.0691         estimate D2E/DX2                !
 ! R63   R(58,60)                1.0697         estimate D2E/DX2                !
 ! R64   R(58,61)                1.4162         estimate D2E/DX2                !
 ! R65   R(61,62)                1.0991         estimate D2E/DX2                !
 ! R66   R(61,63)                1.0991         estimate D2E/DX2                !
 ! R67   R(61,64)                1.5494         estimate D2E/DX2                !
 ! R68   R(64,65)                1.0951         estimate D2E/DX2                !
 ! R69   R(64,66)                1.0958         estimate D2E/DX2                !
 ! R70   R(64,67)                1.5183         estimate D2E/DX2                !
 ! R71   R(67,68)                1.0983         estimate D2E/DX2                !
 ! R72   R(67,69)                1.0977         estimate D2E/DX2                !
 ! R73   R(67,70)                1.4152         estimate D2E/DX2                !
 ! R74   R(70,71)                1.4162         estimate D2E/DX2                !
 ! R75   R(71,72)                1.0991         estimate D2E/DX2                !
 ! R76   R(71,73)                1.0985         estimate D2E/DX2                !
 ! R77   R(71,74)                1.5183         estimate D2E/DX2                !
 ! R78   R(74,75)                1.0994         estimate D2E/DX2                !
 ! R79   R(74,76)                1.0997         estimate D2E/DX2                !
 ! R80   R(74,77)                1.4151         estimate D2E/DX2                !
 ! R81   R(77,78)                1.4156         estimate D2E/DX2                !
 ! R82   R(78,79)                1.1001         estimate D2E/DX2                !
 ! R83   R(78,80)                1.0994         estimate D2E/DX2                !
 ! R84   R(78,81)                1.5182         estimate D2E/DX2                !
 ! R85   R(81,82)                1.0997         estimate D2E/DX2                !
 ! R86   R(81,83)                1.1005         estimate D2E/DX2                !
 ! R87   R(81,84)                1.4134         estimate D2E/DX2                !
 ! R88   R(84,85)                1.4121         estimate D2E/DX2                !
 ! R89   R(85,86)                1.0993         estimate D2E/DX2                !
 ! R90   R(85,87)                1.0909         estimate D2E/DX2                !
 ! R91   R(85,88)                1.1005         estimate D2E/DX2                !
 ! A1    A(2,1,5)              109.2254         estimate D2E/DX2                !
 ! A2    A(2,1,8)              128.1489         estimate D2E/DX2                !
 ! A3    A(5,1,8)              122.6258         estimate D2E/DX2                !
 ! A4    A(1,2,3)              114.2738         estimate D2E/DX2                !
 ! A5    A(1,2,6)              119.5806         estimate D2E/DX2                !
 ! A6    A(3,2,6)              126.1456         estimate D2E/DX2                !
 ! A7    A(2,3,4)              112.1457         estimate D2E/DX2                !
 ! A8    A(2,3,7)              124.3132         estimate D2E/DX2                !
 ! A9    A(4,3,7)              123.541          estimate D2E/DX2                !
 ! A10   A(3,4,5)              112.383          estimate D2E/DX2                !
 ! A11   A(3,4,89)             124.8474         estimate D2E/DX2                !
 ! A12   A(5,4,89)             122.7696         estimate D2E/DX2                !
 ! A13   A(1,5,4)               91.9721         estimate D2E/DX2                !
 ! A14   A(2,6,15)             122.0301         estimate D2E/DX2                !
 ! A15   A(1,8,9)              128.1489         estimate D2E/DX2                !
 ! A16   A(1,8,12)             122.6488         estimate D2E/DX2                !
 ! A17   A(9,8,12)             109.2023         estimate D2E/DX2                !
 ! A18   A(8,9,10)             114.314          estimate D2E/DX2                !
 ! A19   A(8,9,13)             119.5806         estimate D2E/DX2                !
 ! A20   A(10,9,13)            126.1053         estimate D2E/DX2                !
 ! A21   A(9,10,11)            112.0907         estimate D2E/DX2                !
 ! A22   A(9,10,14)            124.4704         estimate D2E/DX2                !
 ! A23   A(11,10,14)           123.4389         estimate D2E/DX2                !
 ! A24   A(10,11,12)           112.4203         estimate D2E/DX2                !
 ! A25   A(10,11,90)           135.9122         estimate D2E/DX2                !
 ! A26   A(12,11,90)           111.6675         estimate D2E/DX2                !
 ! A27   A(8,12,11)             91.9726         estimate D2E/DX2                !
 ! A28   A(9,13,52)            113.5452         estimate D2E/DX2                !
 ! A29   A(6,15,16)            111.0437         estimate D2E/DX2                !
 ! A30   A(6,15,17)            106.4838         estimate D2E/DX2                !
 ! A31   A(6,15,18)            108.1519         estimate D2E/DX2                !
 ! A32   A(16,15,17)           108.6772         estimate D2E/DX2                !
 ! A33   A(16,15,18)           111.5039         estimate D2E/DX2                !
 ! A34   A(17,15,18)           110.871          estimate D2E/DX2                !
 ! A35   A(15,18,19)           110.96           estimate D2E/DX2                !
 ! A36   A(15,18,20)           111.5436         estimate D2E/DX2                !
 ! A37   A(15,18,21)           104.1131         estimate D2E/DX2                !
 ! A38   A(19,18,20)           107.9837         estimate D2E/DX2                !
 ! A39   A(19,18,21)           111.1327         estimate D2E/DX2                !
 ! A40   A(20,18,21)           111.13           estimate D2E/DX2                !
 ! A41   A(18,21,22)           108.443          estimate D2E/DX2                !
 ! A42   A(18,21,23)           107.1277         estimate D2E/DX2                !
 ! A43   A(18,21,24)           113.4955         estimate D2E/DX2                !
 ! A44   A(22,21,23)           112.286          estimate D2E/DX2                !
 ! A45   A(22,21,24)           108.4698         estimate D2E/DX2                !
 ! A46   A(23,21,24)           107.0917         estimate D2E/DX2                !
 ! A47   A(21,24,25)           110.9397         estimate D2E/DX2                !
 ! A48   A(21,24,26)           110.9161         estimate D2E/DX2                !
 ! A49   A(21,24,27)           133.9944         estimate D2E/DX2                !
 ! A50   A(25,24,26)           108.0112         estimate D2E/DX2                !
 ! A51   A(25,24,27)            95.601          estimate D2E/DX2                !
 ! A52   A(26,24,27)            94.4502         estimate D2E/DX2                !
 ! A53   A(24,27,28)            99.2731         estimate D2E/DX2                !
 ! A54   A(24,27,29)           100.4355         estimate D2E/DX2                !
 ! A55   A(24,27,30)           127.3185         estimate D2E/DX2                !
 ! A56   A(28,27,29)           108.6772         estimate D2E/DX2                !
 ! A57   A(28,27,30)           109.8751         estimate D2E/DX2                !
 ! A58   A(29,27,30)           109.8096         estimate D2E/DX2                !
 ! A59   A(27,30,31)           109.8799         estimate D2E/DX2                !
 ! A60   A(27,30,32)           109.9007         estimate D2E/DX2                !
 ! A61   A(27,30,33)           106.8183         estimate D2E/DX2                !
 ! A62   A(31,30,32)           107.9837         estimate D2E/DX2                !
 ! A63   A(31,30,33)           111.1327         estimate D2E/DX2                !
 ! A64   A(32,30,33)           111.13           estimate D2E/DX2                !
 ! A65   A(30,33,34)           113.4955         estimate D2E/DX2                !
 ! A66   A(33,34,35)           110.9397         estimate D2E/DX2                !
 ! A67   A(33,34,36)           110.9161         estimate D2E/DX2                !
 ! A68   A(33,34,37)           107.5641         estimate D2E/DX2                !
 ! A69   A(35,34,36)           108.0112         estimate D2E/DX2                !
 ! A70   A(35,34,37)           109.7115         estimate D2E/DX2                !
 ! A71   A(36,34,37)           109.6957         estimate D2E/DX2                !
 ! A72   A(34,37,38)           109.5971         estimate D2E/DX2                !
 ! A73   A(34,37,39)           109.7194         estimate D2E/DX2                !
 ! A74   A(34,37,40)           107.519          estimate D2E/DX2                !
 ! A75   A(38,37,39)           107.8164         estimate D2E/DX2                !
 ! A76   A(38,37,40)           111.1168         estimate D2E/DX2                !
 ! A77   A(39,37,40)           111.0688         estimate D2E/DX2                !
 ! A78   A(37,40,41)           113.5048         estimate D2E/DX2                !
 ! A79   A(40,41,42)           110.9785         estimate D2E/DX2                !
 ! A80   A(40,41,43)           110.9419         estimate D2E/DX2                !
 ! A81   A(40,41,44)           107.6203         estimate D2E/DX2                !
 ! A82   A(42,41,43)           107.9225         estimate D2E/DX2                !
 ! A83   A(42,41,44)           109.6936         estimate D2E/DX2                !
 ! A84   A(43,41,44)           109.6814         estimate D2E/DX2                !
 ! A85   A(41,44,45)           109.6532         estimate D2E/DX2                !
 ! A86   A(41,44,46)           109.6559         estimate D2E/DX2                !
 ! A87   A(41,44,47)           107.5285         estimate D2E/DX2                !
 ! A88   A(45,44,46)           107.7577         estimate D2E/DX2                !
 ! A89   A(45,44,47)           111.0961         estimate D2E/DX2                !
 ! A90   A(46,44,47)           111.1462         estimate D2E/DX2                !
 ! A91   A(44,47,48)           112.9566         estimate D2E/DX2                !
 ! A92   A(47,48,49)           111.6338         estimate D2E/DX2                !
 ! A93   A(47,48,50)           107.248          estimate D2E/DX2                !
 ! A94   A(47,48,51)           111.6557         estimate D2E/DX2                !
 ! A95   A(49,48,50)           108.9072         estimate D2E/DX2                !
 ! A96   A(49,48,51)           108.3838         estimate D2E/DX2                !
 ! A97   A(50,48,51)           108.9473         estimate D2E/DX2                !
 ! A98   A(13,52,53)           115.569          estimate D2E/DX2                !
 ! A99   A(13,52,54)           110.2287         estimate D2E/DX2                !
 ! A100  A(13,52,55)           102.3603         estimate D2E/DX2                !
 ! A101  A(53,52,54)           108.8101         estimate D2E/DX2                !
 ! A102  A(53,52,55)           109.8376         estimate D2E/DX2                !
 ! A103  A(54,52,55)           109.8274         estimate D2E/DX2                !
 ! A104  A(52,55,56)           109.8136         estimate D2E/DX2                !
 ! A105  A(52,55,57)           109.8226         estimate D2E/DX2                !
 ! A106  A(52,55,58)           106.7913         estimate D2E/DX2                !
 ! A107  A(56,55,57)           108.1727         estimate D2E/DX2                !
 ! A108  A(56,55,58)           111.1143         estimate D2E/DX2                !
 ! A109  A(57,55,58)           111.124          estimate D2E/DX2                !
 ! A110  A(55,58,59)           108.422          estimate D2E/DX2                !
 ! A111  A(55,58,60)           107.0871         estimate D2E/DX2                !
 ! A112  A(55,58,61)           113.526          estimate D2E/DX2                !
 ! A113  A(59,58,60)           112.3484         estimate D2E/DX2                !
 ! A114  A(59,58,61)           108.4136         estimate D2E/DX2                !
 ! A115  A(60,58,61)           107.1208         estimate D2E/DX2                !
 ! A116  A(58,61,62)           110.9525         estimate D2E/DX2                !
 ! A117  A(58,61,63)           110.8518         estimate D2E/DX2                !
 ! A118  A(58,61,64)           106.6645         estimate D2E/DX2                !
 ! A119  A(62,61,63)           107.9678         estimate D2E/DX2                !
 ! A120  A(62,61,64)           110.3431         estimate D2E/DX2                !
 ! A121  A(63,61,64)           110.0774         estimate D2E/DX2                !
 ! A122  A(61,64,65)           113.9181         estimate D2E/DX2                !
 ! A123  A(61,64,66)           114.1787         estimate D2E/DX2                !
 ! A124  A(61,64,67)            99.9298         estimate D2E/DX2                !
 ! A125  A(65,64,66)           108.7681         estimate D2E/DX2                !
 ! A126  A(65,64,67)           109.8376         estimate D2E/DX2                !
 ! A127  A(66,64,67)           109.8565         estimate D2E/DX2                !
 ! A128  A(64,67,68)           109.8136         estimate D2E/DX2                !
 ! A129  A(64,67,69)           109.7937         estimate D2E/DX2                !
 ! A130  A(64,67,70)           106.7913         estimate D2E/DX2                !
 ! A131  A(68,67,69)           108.2141         estimate D2E/DX2                !
 ! A132  A(68,67,70)           111.1143         estimate D2E/DX2                !
 ! A133  A(69,67,70)           111.1099         estimate D2E/DX2                !
 ! A134  A(67,70,71)           113.526          estimate D2E/DX2                !
 ! A135  A(70,71,72)           110.9525         estimate D2E/DX2                !
 ! A136  A(70,71,73)           110.8283         estimate D2E/DX2                !
 ! A137  A(70,71,74)           107.5947         estimate D2E/DX2                !
 ! A138  A(72,71,73)           108.0098         estimate D2E/DX2                !
 ! A139  A(72,71,74)           109.7486         estimate D2E/DX2                !
 ! A140  A(73,71,74)           109.7054         estimate D2E/DX2                !
 ! A141  A(71,74,75)           109.6871         estimate D2E/DX2                !
 ! A142  A(71,74,76)           109.6302         estimate D2E/DX2                !
 ! A143  A(71,74,77)           107.4555         estimate D2E/DX2                !
 ! A144  A(75,74,76)           107.8166         estimate D2E/DX2                !
 ! A145  A(75,74,77)           111.1073         estimate D2E/DX2                !
 ! A146  A(76,74,77)           111.1408         estimate D2E/DX2                !
 ! A147  A(74,77,78)           113.4416         estimate D2E/DX2                !
 ! A148  A(77,78,79)           110.9505         estimate D2E/DX2                !
 ! A149  A(77,78,80)           110.9348         estimate D2E/DX2                !
 ! A150  A(77,78,81)           107.5931         estimate D2E/DX2                !
 ! A151  A(79,78,80)           107.8776         estimate D2E/DX2                !
 ! A152  A(79,78,81)           109.7565         estimate D2E/DX2                !
 ! A153  A(80,78,81)           109.7285         estimate D2E/DX2                !
 ! A154  A(78,81,82)           109.6073         estimate D2E/DX2                !
 ! A155  A(78,81,83)           109.5905         estimate D2E/DX2                !
 ! A156  A(78,81,84)           107.5011         estimate D2E/DX2                !
 ! A157  A(82,81,83)           107.8252         estimate D2E/DX2                !
 ! A158  A(82,81,84)           111.1676         estimate D2E/DX2                !
 ! A159  A(83,81,84)           111.1423         estimate D2E/DX2                !
 ! A160  A(81,84,85)           112.9872         estimate D2E/DX2                !
 ! A161  A(84,85,86)           111.6234         estimate D2E/DX2                !
 ! A162  A(84,85,87)           107.2787         estimate D2E/DX2                !
 ! A163  A(84,85,88)           111.5488         estimate D2E/DX2                !
 ! A164  A(86,85,87)           109.0091         estimate D2E/DX2                !
 ! A165  A(86,85,88)           108.3826         estimate D2E/DX2                !
 ! A166  A(87,85,88)           108.9383         estimate D2E/DX2                !
 ! D1    D(5,1,2,3)             -0.0166         estimate D2E/DX2                !
 ! D2    D(5,1,2,6)            179.9495         estimate D2E/DX2                !
 ! D3    D(8,1,2,3)            179.9736         estimate D2E/DX2                !
 ! D4    D(8,1,2,6)             -0.0602         estimate D2E/DX2                !
 ! D5    D(2,1,5,4)              0.0061         estimate D2E/DX2                !
 ! D6    D(8,1,5,4)           -179.9848         estimate D2E/DX2                !
 ! D7    D(2,1,8,9)            180.0            estimate D2E/DX2                !
 ! D8    D(2,1,8,12)             0.0496         estimate D2E/DX2                !
 ! D9    D(5,1,8,9)             -0.0109         estimate D2E/DX2                !
 ! D10   D(5,1,8,12)          -179.9613         estimate D2E/DX2                !
 ! D11   D(1,2,3,4)              0.0217         estimate D2E/DX2                !
 ! D12   D(1,2,3,7)            179.909          estimate D2E/DX2                !
 ! D13   D(6,2,3,4)           -179.9418         estimate D2E/DX2                !
 ! D14   D(6,2,3,7)             -0.0545         estimate D2E/DX2                !
 ! D15   D(1,2,6,15)          -176.8875         estimate D2E/DX2                !
 ! D16   D(3,2,6,15)             3.0744         estimate D2E/DX2                !
 ! D17   D(2,3,4,5)             -0.0164         estimate D2E/DX2                !
 ! D18   D(2,3,4,89)           179.992          estimate D2E/DX2                !
 ! D19   D(7,3,4,5)           -179.9047         estimate D2E/DX2                !
 ! D20   D(7,3,4,89)             0.1037         estimate D2E/DX2                !
 ! D21   D(3,4,5,1)              0.006          estimate D2E/DX2                !
 ! D22   D(89,4,5,1)           179.9978         estimate D2E/DX2                !
 ! D23   D(2,6,15,16)           56.9809         estimate D2E/DX2                !
 ! D24   D(2,6,15,17)          -61.1621         estimate D2E/DX2                !
 ! D25   D(2,6,15,18)          179.6282         estimate D2E/DX2                !
 ! D26   D(1,8,9,10)          -179.9737         estimate D2E/DX2                !
 ! D27   D(1,8,9,13)             0.0119         estimate D2E/DX2                !
 ! D28   D(12,8,9,10)           -0.018          estimate D2E/DX2                !
 ! D29   D(12,8,9,13)          179.9676         estimate D2E/DX2                !
 ! D30   D(1,8,12,11)          179.9983         estimate D2E/DX2                !
 ! D31   D(9,8,12,11)            0.0396         estimate D2E/DX2                !
 ! D32   D(8,9,10,11)           -0.0216         estimate D2E/DX2                !
 ! D33   D(8,9,10,14)         -179.9735         estimate D2E/DX2                !
 ! D34   D(13,9,10,11)         179.9939         estimate D2E/DX2                !
 ! D35   D(13,9,10,14)           0.042          estimate D2E/DX2                !
 ! D36   D(8,9,13,52)         -177.0184         estimate D2E/DX2                !
 ! D37   D(10,9,13,52)           2.9653         estimate D2E/DX2                !
 ! D38   D(9,10,11,12)           0.0522         estimate D2E/DX2                !
 ! D39   D(9,10,11,90)        -179.9408         estimate D2E/DX2                !
 ! D40   D(14,10,11,12)       -179.9953         estimate D2E/DX2                !
 ! D41   D(14,10,11,90)          0.0117         estimate D2E/DX2                !
 ! D42   D(10,11,12,8)          -0.0534         estimate D2E/DX2                !
 ! D43   D(90,11,12,8)         179.9413         estimate D2E/DX2                !
 ! D44   D(9,13,52,53)          60.0841         estimate D2E/DX2                !
 ! D45   D(9,13,52,54)         -63.7812         estimate D2E/DX2                !
 ! D46   D(9,13,52,55)         179.4229         estimate D2E/DX2                !
 ! D47   D(6,15,18,19)         -63.1777         estimate D2E/DX2                !
 ! D48   D(6,15,18,20)          57.2657         estimate D2E/DX2                !
 ! D49   D(6,15,18,21)         177.1919         estimate D2E/DX2                !
 ! D50   D(16,15,18,19)         59.1885         estimate D2E/DX2                !
 ! D51   D(16,15,18,20)        179.6318         estimate D2E/DX2                !
 ! D52   D(16,15,18,21)        -60.442          estimate D2E/DX2                !
 ! D53   D(17,15,18,19)       -179.5741         estimate D2E/DX2                !
 ! D54   D(17,15,18,20)        -59.1307         estimate D2E/DX2                !
 ! D55   D(17,15,18,21)         60.7954         estimate D2E/DX2                !
 ! D56   D(15,18,21,22)        -59.7596         estimate D2E/DX2                !
 ! D57   D(15,18,21,23)         61.6455         estimate D2E/DX2                !
 ! D58   D(15,18,21,24)        179.6351         estimate D2E/DX2                !
 ! D59   D(19,18,21,22)       -179.2729         estimate D2E/DX2                !
 ! D60   D(19,18,21,23)        -57.8678         estimate D2E/DX2                !
 ! D61   D(19,18,21,24)         60.1218         estimate D2E/DX2                !
 ! D62   D(20,18,21,22)         60.4457         estimate D2E/DX2                !
 ! D63   D(20,18,21,23)       -178.1493         estimate D2E/DX2                !
 ! D64   D(20,18,21,24)        -60.1597         estimate D2E/DX2                !
 ! D65   D(18,21,24,25)        -60.0154         estimate D2E/DX2                !
 ! D66   D(18,21,24,26)         60.0288         estimate D2E/DX2                !
 ! D67   D(18,21,24,27)        179.0062         estimate D2E/DX2                !
 ! D68   D(22,21,24,25)        179.3944         estimate D2E/DX2                !
 ! D69   D(22,21,24,26)        -60.5614         estimate D2E/DX2                !
 ! D70   D(22,21,24,27)         58.416          estimate D2E/DX2                !
 ! D71   D(23,21,24,25)         57.995          estimate D2E/DX2                !
 ! D72   D(23,21,24,26)        178.0392         estimate D2E/DX2                !
 ! D73   D(23,21,24,27)        -62.9833         estimate D2E/DX2                !
 ! D74   D(21,24,27,28)         56.2916         estimate D2E/DX2                !
 ! D75   D(21,24,27,29)        -54.8089         estimate D2E/DX2                !
 ! D76   D(21,24,27,30)       -179.8176         estimate D2E/DX2                !
 ! D77   D(25,24,27,28)        -70.1387         estimate D2E/DX2                !
 ! D78   D(25,24,27,29)        178.7608         estimate D2E/DX2                !
 ! D79   D(25,24,27,30)         53.7521         estimate D2E/DX2                !
 ! D80   D(26,24,27,28)       -178.7567         estimate D2E/DX2                !
 ! D81   D(26,24,27,29)         70.1428         estimate D2E/DX2                !
 ! D82   D(26,24,27,30)        -54.8659         estimate D2E/DX2                !
 ! D83   D(24,27,30,31)        -58.4637         estimate D2E/DX2                !
 ! D84   D(24,27,30,32)         60.2259         estimate D2E/DX2                !
 ! D85   D(24,27,30,33)       -179.1146         estimate D2E/DX2                !
 ! D86   D(28,27,30,31)         60.9447         estimate D2E/DX2                !
 ! D87   D(28,27,30,32)        179.6343         estimate D2E/DX2                !
 ! D88   D(28,27,30,33)        -59.7062         estimate D2E/DX2                !
 ! D89   D(29,27,30,31)       -179.5731         estimate D2E/DX2                !
 ! D90   D(29,27,30,32)        -60.8835         estimate D2E/DX2                !
 ! D91   D(29,27,30,33)         59.776          estimate D2E/DX2                !
 ! D92   D(27,30,33,34)        179.9692         estimate D2E/DX2                !
 ! D93   D(31,30,33,34)         60.1218         estimate D2E/DX2                !
 ! D94   D(32,30,33,34)        -60.1597         estimate D2E/DX2                !
 ! D95   D(30,33,34,35)        -60.0154         estimate D2E/DX2                !
 ! D96   D(30,33,34,36)         60.0288         estimate D2E/DX2                !
 ! D97   D(30,33,34,37)        179.9902         estimate D2E/DX2                !
 ! D98   D(33,34,37,38)         59.1092         estimate D2E/DX2                !
 ! D99   D(33,34,37,39)        -59.0956         estimate D2E/DX2                !
 ! D100  D(33,34,37,40)       -179.9997         estimate D2E/DX2                !
 ! D101  D(35,34,37,38)        -61.6612         estimate D2E/DX2                !
 ! D102  D(35,34,37,39)       -179.8661         estimate D2E/DX2                !
 ! D103  D(35,34,37,40)         59.2298         estimate D2E/DX2                !
 ! D104  D(36,34,37,38)        179.842          estimate D2E/DX2                !
 ! D105  D(36,34,37,39)         61.6371         estimate D2E/DX2                !
 ! D106  D(36,34,37,40)        -59.267          estimate D2E/DX2                !
 ! D107  D(34,37,40,41)       -179.9459         estimate D2E/DX2                !
 ! D108  D(38,37,40,41)        -60.0156         estimate D2E/DX2                !
 ! D109  D(39,37,40,41)         60.0024         estimate D2E/DX2                !
 ! D110  D(37,40,41,42)         59.9557         estimate D2E/DX2                !
 ! D111  D(37,40,41,43)        -60.0196         estimate D2E/DX2                !
 ! D112  D(37,40,41,44)        179.9863         estimate D2E/DX2                !
 ! D113  D(40,41,44,45)         59.0529         estimate D2E/DX2                !
 ! D114  D(40,41,44,46)        -59.0761         estimate D2E/DX2                !
 ! D115  D(40,41,44,47)        179.9573         estimate D2E/DX2                !
 ! D116  D(42,41,44,45)        179.894          estimate D2E/DX2                !
 ! D117  D(42,41,44,46)         61.765          estimate D2E/DX2                !
 ! D118  D(42,41,44,47)        -59.2016         estimate D2E/DX2                !
 ! D119  D(43,41,44,45)        -61.7367         estimate D2E/DX2                !
 ! D120  D(43,41,44,46)       -179.8657         estimate D2E/DX2                !
 ! D121  D(43,41,44,47)         59.1677         estimate D2E/DX2                !
 ! D122  D(41,44,47,48)       -179.991          estimate D2E/DX2                !
 ! D123  D(45,44,47,48)        -59.9983         estimate D2E/DX2                !
 ! D124  D(46,44,47,48)         59.9835         estimate D2E/DX2                !
 ! D125  D(44,47,48,49)         60.7568         estimate D2E/DX2                !
 ! D126  D(44,47,48,50)        179.9753         estimate D2E/DX2                !
 ! D127  D(44,47,48,51)        -60.7447         estimate D2E/DX2                !
 ! D128  D(13,52,55,56)        -62.5151         estimate D2E/DX2                !
 ! D129  D(13,52,55,57)         56.318          estimate D2E/DX2                !
 ! D130  D(13,52,55,58)        176.9098         estimate D2E/DX2                !
 ! D131  D(53,52,55,56)         60.7675         estimate D2E/DX2                !
 ! D132  D(53,52,55,57)        179.6007         estimate D2E/DX2                !
 ! D133  D(53,52,55,58)        -59.8076         estimate D2E/DX2                !
 ! D134  D(54,52,55,56)       -179.5989         estimate D2E/DX2                !
 ! D135  D(54,52,55,57)        -60.7657         estimate D2E/DX2                !
 ! D136  D(54,52,55,58)         59.826          estimate D2E/DX2                !
 ! D137  D(52,55,58,59)         59.4143         estimate D2E/DX2                !
 ! D138  D(52,55,58,60)        -62.03           estimate D2E/DX2                !
 ! D139  D(52,55,58,61)        179.9534         estimate D2E/DX2                !
 ! D140  D(56,55,58,59)        -60.3253         estimate D2E/DX2                !
 ! D141  D(56,55,58,60)        178.2304         estimate D2E/DX2                !
 ! D142  D(56,55,58,61)         60.2138         estimate D2E/DX2                !
 ! D143  D(57,55,58,59)        179.1704         estimate D2E/DX2                !
 ! D144  D(57,55,58,60)         57.7261         estimate D2E/DX2                !
 ! D145  D(57,55,58,61)        -60.2905         estimate D2E/DX2                !
 ! D146  D(55,58,61,62)        -59.9315         estimate D2E/DX2                !
 ! D147  D(55,58,61,63)         60.024          estimate D2E/DX2                !
 ! D148  D(55,58,61,64)        179.8568         estimate D2E/DX2                !
 ! D149  D(59,58,61,62)         60.6124         estimate D2E/DX2                !
 ! D150  D(59,58,61,63)       -179.4322         estimate D2E/DX2                !
 ! D151  D(59,58,61,64)        -59.5993         estimate D2E/DX2                !
 ! D152  D(60,58,61,62)       -177.9285         estimate D2E/DX2                !
 ! D153  D(60,58,61,63)        -57.9731         estimate D2E/DX2                !
 ! D154  D(60,58,61,64)         61.8598         estimate D2E/DX2                !
 ! D155  D(58,61,64,65)         63.028          estimate D2E/DX2                !
 ! D156  D(58,61,64,66)        -62.7704         estimate D2E/DX2                !
 ! D157  D(58,61,64,67)       -179.9377         estimate D2E/DX2                !
 ! D158  D(62,61,64,65)        -57.575          estimate D2E/DX2                !
 ! D159  D(62,61,64,66)        176.6266         estimate D2E/DX2                !
 ! D160  D(62,61,64,67)         59.4593         estimate D2E/DX2                !
 ! D161  D(63,61,64,65)       -176.6403         estimate D2E/DX2                !
 ! D162  D(63,61,64,66)         57.5613         estimate D2E/DX2                !
 ! D163  D(63,61,64,67)        -59.6059         estimate D2E/DX2                !
 ! D164  D(61,64,67,68)        -59.28           estimate D2E/DX2                !
 ! D165  D(61,64,67,69)         59.5863         estimate D2E/DX2                !
 ! D166  D(61,64,67,70)       -179.8551         estimate D2E/DX2                !
 ! D167  D(65,64,67,68)         60.7675         estimate D2E/DX2                !
 ! D168  D(65,64,67,69)        179.6338         estimate D2E/DX2                !
 ! D169  D(65,64,67,70)        -59.8076         estimate D2E/DX2                !
 ! D170  D(66,64,67,68)       -179.6325         estimate D2E/DX2                !
 ! D171  D(66,64,67,69)        -60.7662         estimate D2E/DX2                !
 ! D172  D(66,64,67,70)         59.7924         estimate D2E/DX2                !
 ! D173  D(64,67,70,71)        179.9534         estimate D2E/DX2                !
 ! D174  D(68,67,70,71)         60.2138         estimate D2E/DX2                !
 ! D175  D(69,67,70,71)        -60.3335         estimate D2E/DX2                !
 ! D176  D(67,70,71,72)        -59.9315         estimate D2E/DX2                !
 ! D177  D(67,70,71,73)         60.0614         estimate D2E/DX2                !
 ! D178  D(67,70,71,74)       -179.9978         estimate D2E/DX2                !
 ! D179  D(70,71,74,75)         59.1497         estimate D2E/DX2                !
 ! D180  D(70,71,74,76)        -59.0559         estimate D2E/DX2                !
 ! D181  D(70,71,74,77)       -179.9569         estimate D2E/DX2                !
 ! D182  D(72,71,74,75)        -61.6764         estimate D2E/DX2                !
 ! D183  D(72,71,74,76)       -179.8819         estimate D2E/DX2                !
 ! D184  D(72,71,74,77)         59.2171         estimate D2E/DX2                !
 ! D185  D(73,71,74,75)        179.8003         estimate D2E/DX2                !
 ! D186  D(73,71,74,76)         61.5947         estimate D2E/DX2                !
 ! D187  D(73,71,74,77)        -59.3063         estimate D2E/DX2                !
 ! D188  D(71,74,77,78)       -179.9533         estimate D2E/DX2                !
 ! D189  D(75,74,77,78)        -59.9584         estimate D2E/DX2                !
 ! D190  D(76,74,77,78)         60.1016         estimate D2E/DX2                !
 ! D191  D(74,77,78,79)         59.9192         estimate D2E/DX2                !
 ! D192  D(74,77,78,80)        -59.9765         estimate D2E/DX2                !
 ! D193  D(74,77,78,81)        179.9931         estimate D2E/DX2                !
 ! D194  D(77,78,81,82)         59.0098         estimate D2E/DX2                !
 ! D195  D(77,78,81,83)        -59.1352         estimate D2E/DX2                !
 ! D196  D(77,78,81,84)        179.9575         estimate D2E/DX2                !
 ! D197  D(79,78,81,82)        179.8372         estimate D2E/DX2                !
 ! D198  D(79,78,81,83)         61.6922         estimate D2E/DX2                !
 ! D199  D(79,78,81,84)        -59.2151         estimate D2E/DX2                !
 ! D200  D(80,78,81,82)        -61.7822         estimate D2E/DX2                !
 ! D201  D(80,78,81,83)       -179.9272         estimate D2E/DX2                !
 ! D202  D(80,78,81,84)         59.1655         estimate D2E/DX2                !
 ! D203  D(78,81,84,85)       -179.9959         estimate D2E/DX2                !
 ! D204  D(82,81,84,85)        -60.0345         estimate D2E/DX2                !
 ! D205  D(83,81,84,85)         60.078          estimate D2E/DX2                !
 ! D206  D(81,84,85,86)         60.697          estimate D2E/DX2                !
 ! D207  D(81,84,85,87)       -179.9466         estimate D2E/DX2                !
 ! D208  D(81,84,85,88)        -60.72           estimate D2E/DX2                !
 --------------------------------------------------------------------------------
 Trust Radius=3.00D-01 FncErr=1.00D-07 GrdErr=1.00D-06 EigMax=2.50D+02 EigMin=1.00D-04
 Number of steps in this run=    475 maximum allowed number of steps=    540.
 GradGradGradGradGradGradGradGradGradGradGradGradGradGradGradGradGradGrad

 Leave Link  103 at Tue Mar 31 08:55:32 2020, MaxMem=  6710886400 cpu:               0.2 elap:               0.0
 (Enter /apps/gaussian/g16-a03/l202.exe)
 Stoichiometry    C30H50O8S2
 Framework group  C1[X(C30H50O8S2)]
 Deg. of freedom   264
 Full point group                 C1      NOp   1
 Largest Abelian subgroup         C1      NOp   1
 Largest concise Abelian subgroup C1      NOp   1
                         Standard orientation:                         
 ---------------------------------------------------------------------
 Center     Atomic      Atomic             Coordinates (Angstroms)
 Number     Number       Type             X           Y           Z
 ---------------------------------------------------------------------
      1          6           0        0.017509    0.907118   -0.028226
      2          6           0        1.238359    1.562366   -0.027532
      3          6           0        1.140314    2.982521   -0.025969
      4          6           0       -0.154475    3.408135   -0.024994
      5         16           0       -1.277984    2.096362   -0.026408
      6          8           0        2.392525    0.835655   -0.027656
      7          1           0        1.988278    3.651301   -0.023836
      8          6           0       -0.231604   -0.516452   -0.030309
      9          6           0       -1.452454   -1.171700   -0.031003
     10          6           0       -1.355409   -2.591896   -0.032568
     11          6           0       -0.059621   -3.017469   -0.033542
     12         16           0        1.063929   -1.706694   -0.031127
     13          8           0       -2.606622   -0.444988   -0.029879
     14          1           0       -2.202292   -3.262633   -0.033699
     15          6           0        3.665061    1.449030    0.038123
     16          1           0        3.751558    2.081403    0.929125
     17          1           0        3.751143    2.082913   -0.851878
     18          6           0        4.585542    0.493417    0.028696
     19          1           0        4.495757   -0.147627    0.916693
     20          1           0        4.495296   -0.145117   -0.861310
     21          6           0        5.813392    1.196997    0.029391
     22          1           0        5.850073    1.814821   -0.843681
     23          1           0        5.848323    1.769181    0.933327
     24          6           0        6.949519    0.350433    0.028264
     25          1           0        6.958065   -0.296534    0.916410
     26          1           0        6.957604   -0.294023   -0.861594
     27          6           0        8.731959    0.642676    0.005872
     28          1           0        8.818455    1.275049    0.896874
     29          1           0        8.818041    1.276560   -0.884129
     30          6           0        9.835177   -0.399423    0.003736
     31          1           0        9.745392   -1.040467    0.891734
     32          1           0        9.744931   -1.037956   -0.886270
     33          8           0       11.063027    0.304158    0.004431
     34          6           0       12.199154   -0.542406    0.003304
     35          1           0       12.207700   -1.189373    0.891450
     36          1           0       12.207239   -1.186863   -0.886553
     37          6           0       13.431396    0.344514    0.003968
     38          1           0       13.420231    0.990845    0.893820
     39          1           0       13.421767    0.993438   -0.883180
     40          8           0       14.564485   -0.501175    0.002836
     41          6           0       15.793374    0.201448    0.004533
     42          1           0       15.879583    0.840814    0.893532
     43          1           0       15.880120    0.843367   -0.883469
     44          6           0       16.909997   -0.826082    0.003414
     45          1           0       16.821875   -1.467530   -0.886588
     46          1           0       16.821336   -1.470082    0.891413
     47          8           0       18.135849   -0.122584    0.004105
     48          6           0       19.261276   -0.976599    0.002964
     49          1           0       19.282272   -1.618518   -0.889875
     50          1           0       20.148706   -0.342211    0.003163
     51          1           0       19.282723   -1.621028    0.894129
     52          6           0       -3.789332   -1.249764    0.037515
     53          1           0       -3.878325   -1.885771    0.924513
     54          1           0       -3.872036   -1.876976   -0.856482
     55          6           0       -4.892591   -0.206666    0.038651
     56          1           0       -4.805139    0.426748    0.931654
     57          1           0       -4.798854    0.435544   -0.847341
     58          6           0       -6.120430   -0.910248    0.030956
     59          1           0       -6.160021   -1.530194    0.901025
     60          1           0       -6.151528   -1.478269   -0.874975
     61          6           0       -7.256516   -0.064682    0.032083
     62          1           0       -7.267518    0.577652    0.923937
     63          1           0       -7.261192    0.585448   -0.854057
     64          6           0       -8.499152   -0.990071    0.019412
     65          1           0       -8.588144   -1.626078    0.906409
     66          1           0       -8.581814   -1.618282   -0.874585
     67          6           0       -9.602411    0.053027    0.020548
     68          1           0       -9.514959    0.686441    0.913551
     69          1           0       -9.508632    0.694237   -0.865444
     70          8           0      -10.830250   -0.650555    0.012853
     71          6           0      -11.966336    0.195010    0.013980
     72          1           0      -11.977338    0.837344    0.905834
     73          1           0      -11.970971    0.844142   -0.872160
     74          6           0      -13.198566   -0.691913    0.005316
     75          1           0      -13.191807   -1.343959    0.890461
     76          1           0      -13.184525   -1.335121   -0.886532
     77          8           0      -14.331736    0.155775    0.005447
     78          6           0      -15.560618   -0.546849   -0.001249
     79          1           0      -15.649193   -1.192848    0.884751
     80          1           0      -15.643908   -1.184093   -0.893245
     81          6           0      -16.677283    0.481680   -0.000130
     82          1           0      -16.584712    1.127845   -0.885124
     83          1           0      -16.590997    1.119049    0.892870
     84          8           0      -17.903124   -0.221819   -0.007822
     85          6           0      -19.028508    0.631197   -0.007680
     86          1           0      -19.046087    1.278789   -0.895840
     87          1           0      -19.915930   -0.003193   -0.012879
     88          1           0      -19.051382    1.270036    0.888156
     89          1           0       -0.459011    4.426371   -0.023657
     90          1           0        0.451160   -3.989102   -0.035579
 ---------------------------------------------------------------------
 Rotational constants (GHZ):           0.4774212           0.0078449           0.0077264
 Leave Link  202 at Tue Mar 31 08:55:32 2020, MaxMem=  6710886400 cpu:               0.1 elap:               0.0
 (Enter /apps/gaussian/g16-a03/l301.exe)
 Standard basis: 6-311G(d,p) (5D, 7F)
 Ernie: Thresh=  0.10000D-02 Tol=  0.10000D-05 Strict=F.
 There are  1076 symmetry adapted cartesian basis functions of A   symmetry.
 There are  1036 symmetry adapted basis functions of A   symmetry.
  1036 basis functions,  1708 primitive gaussians,  1076 cartesian basis functions
   163 alpha electrons      163 beta electrons
       nuclear repulsion energy      4187.4902174686 Hartrees.
 IExCor=  402 DFT=T Ex+Corr=B3LYP ExCW=0 ScaHFX=  0.200000
 ScaDFX=  0.800000  0.720000  1.000000  0.810000 ScalE2=  1.000000  1.000000
 IRadAn=      5 IRanWt=     -1 IRanGd=            0 ICorTp=0 IEmpDi=  4
 NAtoms=   90 NActive=   90 NUniq=   90 SFac= 1.00D+00 NAtFMM=   60 NAOKFM=T Big=T
 Integral buffers will be    131072 words long.
 Raffenetti 2 integral format.
 Two-electron integral symmetry is turned on.
 Leave Link  301 at Tue Mar 31 08:55:32 2020, MaxMem=  6710886400 cpu:               1.7 elap:               0.3
 (Enter /apps/gaussian/g16-a03/l302.exe)
 NPDir=0 NMtPBC=     1 NCelOv=     1 NCel=       1 NClECP=     1 NCelD=      1
         NCelK=      1 NCelE2=     1 NClLst=     1 CellRange=     0.0.
 One-electron integrals computed using PRISM.
 One-electron integral symmetry used in STVInt
 NBasis=  1036 RedAO= T EigKep=  2.87D-04  NBF=  1036
 NBsUse=  1036 1.00D-06 EigRej= -1.00D+00 NBFU=  1036
 Precomputing XC quadrature grid using
 IXCGrd= 4 IRadAn=           5 IRanWt=          -1 IRanGd=           0 AccXCQ= 0.00D+00.
 Generated NRdTot=       0 NPtTot=           0 NUsed=           0 NTot=          32
 NSgBfM=   608   607   607   607   608 MxSgAt=    90 MxSgA2=    84.
 Leave Link  302 at Tue Mar 31 08:55:35 2020, MaxMem=  6710886400 cpu:              24.4 elap:               3.1
 (Enter /apps/gaussian/g16-a03/l303.exe)
 DipDrv:  MaxL=1.
 Leave Link  303 at Tue Mar 31 08:55:36 2020, MaxMem=  6710886400 cpu:               1.9 elap:               0.3
 (Enter /apps/gaussian/g16-a03/l401.exe)
 ExpMin= 7.71D-02 ExpMax= 9.34D+04 ExpMxC= 3.17D+03 IAcc=3 IRadAn=         5 AccDes= 0.00D+00
 Harris functional with IExCor=  402 and IRadAn=       5 diagonalized for initial guess.
 HarFok:  IExCor=  402 AccDes= 0.00D+00 IRadAn=         5 IDoV= 1 UseB2=F ITyADJ=14
 ICtDFT=  3500011 ScaDFX=  1.000000  1.000000  1.000000  1.000000
 FoFCou: FMM=F IPFlag=           0 FMFlag=      100000 FMFlg1=        2001
         NFxFlg=           0 DoJE=T BraDBF=F KetDBF=T FulRan=T
         wScrn=  0.000000 ICntrl=       500 IOpCl=  0 I1Cent=   200000004 NGrid=           0
         NMat0=    1 NMatS0=      1 NMatT0=    0 NMatD0=    1 NMtDS0=    0 NMtDT0=    0
 Petite list used in FoFCou.
 Harris En= -2571.82109703206    
 JPrj=0 DoOrth=F DoCkMO=F.
 Leave Link  401 at Tue Mar 31 08:55:48 2020, MaxMem=  6710886400 cpu:              93.8 elap:              11.8
 (Enter /apps/gaussian/g16-a03/l502.exe)
 Integral symmetry usage will be decided dynamically.
 Closed shell SCF:
 Using DIIS extrapolation, IDIIS=  1040.
 NGot=  6710886400 LenX=  6708551372 LenY=  6707392520
 Requested convergence on RMS density matrix=1.00D-08 within 128 cycles.
 Requested convergence on MAX density matrix=1.00D-06.
 Requested convergence on             energy=1.00D-06.
 No special actions if energy rises.
 Fock matrices will be formed incrementally for  20 cycles.
 Integral accuracy reduced to 1.0D-05 until final iterations.

 Cycle   1  Pass 0  IDiag  1:
 FoFJK:  IHMeth= 1 ICntrl=       0 DoSepK=F KAlg= 0 I1Cent=           0 FoldK=F
 IRaf= 400000000 NMat=       1 IRICut=       1 DoRegI=T DoRafI=F ISym2E= 0 IDoP0=0 IntGTp=1.
 FoFCou: FMM=T IPFlag=           0 FMFlag=      100000 FMFlg1=        2001
         NFxFlg=           0 DoJE=F BraDBF=F KetDBF=F FulRan=T
         wScrn=  0.000000 ICntrl=         0 IOpCl=  0 I1Cent=           0 NGrid=           0
         NMat0=    1 NMatS0=      1 NMatT0=    0 NMatD0=    1 NMtDS0=    0 NMtDT0=    0
 Symmetry not used in FoFCou.
 FMM levels:  10  Number of levels for PrismC:   9
 E= -2570.51621370743    
 DIIS: error= 3.90D-02 at cycle   1 NSaved=   1.
 NSaved= 1 IEnMin= 1 EnMin= -2570.51621370743     IErMin= 1 ErrMin= 3.90D-02
 ErrMax= 3.90D-02  0.00D+00 EMaxC= 1.00D-01 BMatC= 1.35D+00 BMatP= 1.35D+00
 IDIUse=3 WtCom= 6.10D-01 WtEn= 3.90D-01
 Coeff-Com:  0.100D+01
 Coeff-En:   0.100D+01
 Coeff:      0.100D+01
 Gap=     0.087 Goal=   None    Shift=    0.000
 GapD=    0.087 DampG=0.500 DampE=0.500 DampFc=0.2500 IDamp=-1.
 Damping current iteration by 2.50D-01
 RMSDP=2.15D-03 MaxDP=1.38D-01              OVMax= 2.53D-01

 Cycle   2  Pass 0  IDiag  1:
 RMSU=  5.35D-04    CP:  9.93D-01
 E= -2570.96456229968     Delta-E=       -0.448348592259 Rises=F Damp=T
 DIIS: error= 1.82D-02 at cycle   2 NSaved=   2.
 NSaved= 2 IEnMin= 2 EnMin= -2570.96456229968     IErMin= 2 ErrMin= 1.82D-02
 ErrMax= 1.82D-02  0.00D+00 EMaxC= 1.00D-01 BMatC= 3.38D-01 BMatP= 1.35D+00
 IDIUse=3 WtCom= 8.18D-01 WtEn= 1.82D-01
 Coeff-Com: -0.838D+00 0.184D+01
 Coeff-En:   0.000D+00 0.100D+01
 Coeff:     -0.686D+00 0.169D+01
 Gap=     0.211 Goal=   None    Shift=    0.000
 RMSDP=5.34D-04 MaxDP=3.68D-02 DE=-4.48D-01 OVMax= 2.41D-01

 Cycle   3  Pass 0  IDiag  1:
 RMSU=  4.58D-04    CP:  9.89D-01  1.51D+00
 E= -2571.71251949958     Delta-E=       -0.747957199892 Rises=F Damp=F
 DIIS: error= 6.60D-03 at cycle   3 NSaved=   3.
 NSaved= 3 IEnMin= 3 EnMin= -2571.71251949958     IErMin= 3 ErrMin= 6.60D-03
 ErrMax= 6.60D-03  0.00D+00 EMaxC= 1.00D-01 BMatC= 2.07D-02 BMatP= 3.38D-01
 IDIUse=3 WtCom= 9.34D-01 WtEn= 6.60D-02
 Coeff-Com: -0.237D+00 0.537D+00 0.701D+00
 Coeff-En:   0.000D+00 0.000D+00 0.100D+01
 Coeff:     -0.222D+00 0.501D+00 0.720D+00
 Gap=     0.144 Goal=   None    Shift=    0.000
 RMSDP=2.43D-04 MaxDP=3.23D-02 DE=-7.48D-01 OVMax= 6.80D-02

 Cycle   4  Pass 0  IDiag  1:
 RMSU=  1.60D-04    CP:  9.90D-01  1.55D+00  6.02D-01
 E= -2571.72027327201     Delta-E=       -0.007753772431 Rises=F Damp=F
 DIIS: error= 7.08D-03 at cycle   4 NSaved=   4.
 NSaved= 4 IEnMin= 4 EnMin= -2571.72027327201     IErMin= 3 ErrMin= 6.60D-03
 ErrMax= 7.08D-03  0.00D+00 EMaxC= 1.00D-01 BMatC= 1.31D-02 BMatP= 2.07D-02
 IDIUse=3 WtCom= 9.29D-01 WtEn= 7.08D-02
 Coeff-Com: -0.383D-01 0.975D-01 0.440D+00 0.500D+00
 Coeff-En:   0.000D+00 0.000D+00 0.393D+00 0.607D+00
 Coeff:     -0.356D-01 0.906D-01 0.437D+00 0.508D+00
 Gap=     0.144 Goal=   None    Shift=    0.000
 RMSDP=1.07D-04 MaxDP=1.03D-02 DE=-7.75D-03 OVMax= 3.02D-02

 Cycle   5  Pass 0  IDiag  1:
 RMSU=  5.58D-05    CP:  9.89D-01  1.53D+00  7.28D-01  5.65D-01
 E= -2571.73207553234     Delta-E=       -0.011802260335 Rises=F Damp=F
 DIIS: error= 1.59D-03 at cycle   5 NSaved=   5.
 NSaved= 5 IEnMin= 5 EnMin= -2571.73207553234     IErMin= 5 ErrMin= 1.59D-03
 ErrMax= 1.59D-03  0.00D+00 EMaxC= 1.00D-01 BMatC= 6.45D-04 BMatP= 1.31D-02
 IDIUse=3 WtCom= 9.84D-01 WtEn= 1.59D-02
 Coeff-Com: -0.243D-02 0.133D-01 0.185D+00 0.264D+00 0.540D+00
 Coeff-En:   0.000D+00 0.000D+00 0.000D+00 0.000D+00 0.100D+01
 Coeff:     -0.239D-02 0.131D-01 0.182D+00 0.260D+00 0.547D+00
 Gap=     0.146 Goal=   None    Shift=    0.000
 RMSDP=3.20D-05 MaxDP=3.33D-03 DE=-1.18D-02 OVMax= 1.13D-02

 Cycle   6  Pass 0  IDiag  1:
 RMSU=  1.84D-05    CP:  9.89D-01  1.53D+00  7.35D-01  6.17D-01  5.60D-01
 E= -2571.73252860297     Delta-E=       -0.000453070626 Rises=F Damp=F
 DIIS: error= 8.78D-04 at cycle   6 NSaved=   6.
 NSaved= 6 IEnMin= 6 EnMin= -2571.73252860297     IErMin= 6 ErrMin= 8.78D-04
 ErrMax= 8.78D-04  0.00D+00 EMaxC= 1.00D-01 BMatC= 1.64D-04 BMatP= 6.45D-04
 IDIUse=3 WtCom= 9.91D-01 WtEn= 8.78D-03
 Coeff-Com:  0.509D-02-0.695D-02 0.624D-01 0.103D+00 0.359D+00 0.477D+00
 Coeff-En:   0.000D+00 0.000D+00 0.000D+00 0.000D+00 0.227D+00 0.773D+00
 Coeff:      0.504D-02-0.689D-02 0.618D-01 0.102D+00 0.358D+00 0.480D+00
 Gap=     0.145 Goal=   None    Shift=    0.000
 RMSDP=1.46D-05 MaxDP=1.43D-03 DE=-4.53D-04 OVMax= 5.72D-03

 Cycle   7  Pass 0  IDiag  1:
 RMSU=  6.73D-06    CP:  9.89D-01  1.53D+00  7.40D-01  6.00D-01  6.79D-01
                    CP:  4.28D-01
 E= -2571.73267435503     Delta-E=       -0.000145752058 Rises=F Damp=F
 DIIS: error= 3.92D-04 at cycle   7 NSaved=   7.
 NSaved= 7 IEnMin= 7 EnMin= -2571.73267435503     IErMin= 7 ErrMin= 3.92D-04
 ErrMax= 3.92D-04  0.00D+00 EMaxC= 1.00D-01 BMatC= 1.76D-05 BMatP= 1.64D-04
 IDIUse=3 WtCom= 9.96D-01 WtEn= 3.92D-03
 Coeff-Com:  0.364D-02-0.571D-02 0.245D-01 0.430D-01 0.183D+00 0.313D+00
 Coeff-Com:  0.438D+00
 Coeff-En:   0.000D+00 0.000D+00 0.000D+00 0.000D+00 0.000D+00 0.735D-01
 Coeff-En:   0.926D+00
 Coeff:      0.363D-02-0.569D-02 0.244D-01 0.428D-01 0.182D+00 0.312D+00
 Coeff:      0.440D+00
 Gap=     0.145 Goal=   None    Shift=    0.000
 RMSDP=4.79D-06 MaxDP=4.34D-04 DE=-1.46D-04 OVMax= 1.86D-03

 Initial convergence to 1.0D-05 achieved.  Increase integral accuracy.
 Cycle   8  Pass 1  IDiag  1:
 E= -2571.73259136534     Delta-E=        0.000082989690 Rises=F Damp=F
 DIIS: error= 8.86D-05 at cycle   1 NSaved=   1.
 NSaved= 1 IEnMin= 1 EnMin= -2571.73259136534     IErMin= 1 ErrMin= 8.86D-05
 ErrMax= 8.86D-05  0.00D+00 EMaxC= 1.00D-01 BMatC= 3.22D-06 BMatP= 3.22D-06
 IDIUse=1 WtCom= 1.00D+00 WtEn= 0.00D+00
 Coeff-Com:  0.100D+01
 Coeff:      0.100D+01
 Gap=     0.145 Goal=   None    Shift=    0.000
 RMSDP=4.79D-06 MaxDP=4.34D-04 DE= 8.30D-05 OVMax= 8.59D-04

 Cycle   9  Pass 1  IDiag  1:
 RMSU=  2.50D-05    CP:  1.00D+00
 E= -2571.73259115752     Delta-E=        0.000000207811 Rises=F Damp=F
 DIIS: error= 1.80D-04 at cycle   2 NSaved=   2.
 NSaved= 2 IEnMin= 1 EnMin= -2571.73259136534     IErMin= 1 ErrMin= 8.86D-05
 ErrMax= 1.80D-04  0.00D+00 EMaxC= 1.00D-01 BMatC= 3.41D-06 BMatP= 3.22D-06
 IDIUse=3 WtCom= 9.98D-01 WtEn= 1.80D-03
 Coeff-Com:  0.510D+00 0.490D+00
 Coeff-En:   0.520D+00 0.480D+00
 Coeff:      0.510D+00 0.490D+00
 Gap=     0.145 Goal=   None    Shift=    0.000
 RMSDP=2.74D-06 MaxDP=2.59D-04 DE= 2.08D-07 OVMax= 1.10D-03

 Cycle  10  Pass 1  IDiag  1:
 RMSU=  2.73D-06    CP:  1.00D+00  9.95D-01
 E= -2571.73259337244     Delta-E=       -0.000002214913 Rises=F Damp=F
 DIIS: error= 1.18D-04 at cycle   3 NSaved=   3.
 NSaved= 3 IEnMin= 3 EnMin= -2571.73259337244     IErMin= 1 ErrMin= 8.86D-05
 ErrMax= 1.18D-04  0.00D+00 EMaxC= 1.00D-01 BMatC= 1.23D-06 BMatP= 3.22D-06
 IDIUse=3 WtCom= 9.99D-01 WtEn= 1.18D-03
 Coeff-Com:  0.414D-01 0.368D+00 0.590D+00
 Coeff-En:   0.000D+00 0.322D+00 0.678D+00
 Coeff:      0.413D-01 0.368D+00 0.590D+00
 Gap=     0.145 Goal=   None    Shift=    0.000
 RMSDP=1.30D-06 MaxDP=1.14D-04 DE=-2.21D-06 OVMax= 5.03D-04

 Cycle  11  Pass 1  IDiag  1:
 RMSU=  4.55D-07    CP:  1.00D+00  1.01D+00  5.65D-01
 E= -2571.73259456392     Delta-E=       -0.000001191486 Rises=F Damp=F
 DIIS: error= 2.07D-05 at cycle   4 NSaved=   4.
 NSaved= 4 IEnMin= 4 EnMin= -2571.73259456392     IErMin= 4 ErrMin= 2.07D-05
 ErrMax= 2.07D-05  0.00D+00 EMaxC= 1.00D-01 BMatC= 1.35D-07 BMatP= 1.23D-06
 IDIUse=1 WtCom= 1.00D+00 WtEn= 0.00D+00
 Coeff-Com: -0.197D-02 0.218D+00 0.393D+00 0.390D+00
 Coeff:     -0.197D-02 0.218D+00 0.393D+00 0.390D+00
 Gap=     0.145 Goal=   None    Shift=    0.000
 RMSDP=3.25D-07 MaxDP=3.29D-05 DE=-1.19D-06 OVMax= 1.09D-04

 Cycle  12  Pass 1  IDiag  1:
 RMSU=  1.02D-07    CP:  1.00D+00  1.01D+00  6.23D-01  4.20D-01
 E= -2571.73259468881     Delta-E=       -0.000000124888 Rises=F Damp=F
 DIIS: error= 2.54D-06 at cycle   5 NSaved=   5.
 NSaved= 5 IEnMin= 5 EnMin= -2571.73259468881     IErMin= 5 ErrMin= 2.54D-06
 ErrMax= 2.54D-06  0.00D+00 EMaxC= 1.00D-01 BMatC= 1.51D-09 BMatP= 1.35D-07
 IDIUse=1 WtCom= 1.00D+00 WtEn= 0.00D+00
 Coeff-Com: -0.215D-02 0.105D+00 0.190D+00 0.205D+00 0.501D+00
 Coeff:     -0.215D-02 0.105D+00 0.190D+00 0.205D+00 0.501D+00
 Gap=     0.145 Goal=   None    Shift=    0.000
 RMSDP=4.01D-08 MaxDP=4.47D-06 DE=-1.25D-07 OVMax= 1.14D-05

 Cycle  13  Pass 1  IDiag  1:
 RMSU=  3.36D-08    CP:  1.00D+00  1.01D+00  6.22D-01  4.42D-01  8.19D-01
 E= -2571.73259469014     Delta-E=       -0.000000001326 Rises=F Damp=F
 DIIS: error= 5.97D-07 at cycle   6 NSaved=   6.
 NSaved= 6 IEnMin= 6 EnMin= -2571.73259469014     IErMin= 6 ErrMin= 5.97D-07
 ErrMax= 5.97D-07  0.00D+00 EMaxC= 1.00D-01 BMatC= 1.35D-10 BMatP= 1.51D-09
 IDIUse=1 WtCom= 1.00D+00 WtEn= 0.00D+00
 Coeff-Com: -0.101D-02 0.403D-01 0.720D-01 0.814D-01 0.275D+00 0.532D+00
 Coeff:     -0.101D-02 0.403D-01 0.720D-01 0.814D-01 0.275D+00 0.532D+00
 Gap=     0.145 Goal=   None    Shift=    0.000
 RMSDP=1.49D-08 MaxDP=1.91D-06 DE=-1.33D-09 OVMax= 5.88D-06

 Cycle  14  Pass 1  IDiag  1:
 RMSU=  1.12D-08    CP:  1.00D+00  1.01D+00  6.21D-01  4.36D-01  8.10D-01
                    CP:  7.37D-01
 E= -2571.73259469028     Delta-E=       -0.000000000137 Rises=F Damp=F
 DIIS: error= 1.86D-07 at cycle   7 NSaved=   7.
 NSaved= 7 IEnMin= 7 EnMin= -2571.73259469028     IErMin= 7 ErrMin= 1.86D-07
 ErrMax= 1.86D-07  0.00D+00 EMaxC= 1.00D-01 BMatC= 9.17D-12 BMatP= 1.35D-10
 IDIUse=1 WtCom= 1.00D+00 WtEn= 0.00D+00
 Coeff-Com: -0.136D-03 0.341D-02 0.541D-02 0.807D-02 0.455D-01 0.231D+00
 Coeff-Com:  0.707D+00
 Coeff:     -0.136D-03 0.341D-02 0.541D-02 0.807D-02 0.455D-01 0.231D+00
 Coeff:      0.707D+00
 Gap=     0.145 Goal=   None    Shift=    0.000
 RMSDP=4.32D-09 MaxDP=4.98D-07 DE=-1.37D-10 OVMax= 1.17D-06

 SCF Done:  E(RB3LYP) =  -2571.73259469     A.U. after   14 cycles
            NFock= 14  Conv=0.43D-08     -V/T= 2.0025
 KE= 2.565241141103D+03 PE=-1.441312007916D+04 EE= 5.088656125894D+03
 Leave Link  502 at Tue Mar 31 09:00:02 2020, MaxMem=  6710886400 cpu:            2021.4 elap:             254.0
 (Enter /apps/gaussian/g16-a03/l601.exe)
 Copying SCF densities to generalized density rwf, IOpCl= 0 IROHF=0.

 **********************************************************************

            Population analysis using the SCF density.

 **********************************************************************

 Orbital symmetries:
       Occupied  (A) (A) (A) (A) (A) (A) (A) (A) (A) (A) (A) (A)
                 (A) (A) (A) (A) (A) (A) (A) (A) (A) (A) (A) (A)
                 (A) (A) (A) (A) (A) (A) (A) (A) (A) (A) (A) (A)
                 (A) (A) (A) (A) (A) (A) (A) (A) (A) (A) (A) (A)
                 (A) (A) (A) (A) (A) (A) (A) (A) (A) (A) (A) (A)
                 (A) (A) (A) (A) (A) (A) (A) (A) (A) (A) (A) (A)
[...]
 Alpha virt. eigenvalues --    0.62406   0.62460   0.62861   0.62867   0.63374
 Alpha virt. eigenvalues --    0.63566   0.63597   0.63649   0.63917   0.64003
 Alpha virt. eigenvalues --    0.64094   0.64225   0.64581   0.64864   0.64969
 Alpha virt. eigenvalues --    0.65219   0.65740   0.65918   0.66806   0.67655
 Alpha virt. eigenvalues --    0.67662   0.68880   0.68882   0.69949   0.71096
 Alpha virt. eigenvalues --    0.71948   0.72233   0.72528   0.73134   0.73161
 Alpha virt. eigenvalues --    0.74299   0.74917   0.75305   0.76725   0.77212
 Alpha virt. eigenvalues --    0.77260   0.77388   0.78873   0.80089   0.80438
 Alpha virt. eigenvalues --    0.80452   0.80806   0.82142   0.82538   0.84997
 Alpha virt. eigenvalues --    0.86101   0.87417   0.87627   0.88260   0.88347
 Alpha virt. eigenvalues --    0.89577   0.90038   0.90329   0.90498   0.90907
 Alpha virt. eigenvalues --    0.91612   0.91657   0.93647   0.93733   0.93913
 Alpha virt. eigenvalues --    0.94267   0.94780   0.95312   0.95378   0.95819
 Alpha virt. eigenvalues --    0.96558   0.96597   0.97503   0.97607   0.97821
 Alpha virt. eigenvalues --    0.98003   0.98239   0.98313   0.98571   0.99732
 Alpha virt. eigenvalues --    1.00113   1.00883   1.02029   1.02031   1.02451
 Alpha virt. eigenvalues --    1.02740   1.02928   1.03611   1.03956   1.04414
 Alpha virt. eigenvalues --    1.04672   1.04787   1.05931   1.06316   1.06412
 Alpha virt. eigenvalues --    1.06442   1.07770   1.07799   1.07844   1.07994
 Alpha virt. eigenvalues --    1.08180   1.08713   1.09815   1.11460   1.11813
 Alpha virt. eigenvalues --    1.12364   1.12469   1.12536   1.13467   1.13665
 Alpha virt. eigenvalues --    1.14565   1.14692   1.15566   1.15979   1.17578
 Alpha virt. eigenvalues --    1.17706   1.20284   1.20514   1.21424   1.21608
 Alpha virt. eigenvalues --    1.22608   1.23646   1.23674   1.23882   1.24033
 Alpha virt. eigenvalues --    1.24569   1.25109   1.25280   1.25483   1.25537
 Alpha virt. eigenvalues --    1.26058   1.26123   1.26598   1.26777   1.27230
 Alpha virt. eigenvalues --    1.29978   1.30135   1.31448   1.32572   1.33312
 Alpha virt. eigenvalues --    1.33958   1.34878   1.34907   1.39462   1.39775
 Alpha virt. eigenvalues --    1.40872   1.41140   1.41175   1.41782   1.41782
 Alpha virt. eigenvalues --    1.42532   1.43897   1.43897   1.44550   1.45229
 Alpha virt. eigenvalues --    1.45242   1.45250   1.45275   1.45295   1.45323
 Alpha virt. eigenvalues --    1.45359   1.46535   1.46539   1.46850   1.46855
 Alpha virt. eigenvalues --    1.47094   1.47100   1.47391   1.47401   1.47952
 Alpha virt. eigenvalues --    1.47974   1.48606   1.48648   1.49563   1.49629
 Alpha virt. eigenvalues --    1.50326   1.50369   1.51005   1.51378   1.51466
 Alpha virt. eigenvalues --    1.51652   1.52093   1.52232   1.52942   1.53040
 Alpha virt. eigenvalues --    1.55645   1.55661   1.55679   1.55702   1.56865
 Alpha virt. eigenvalues --    1.56925   1.57037   1.57113   1.57299   1.57969
 Alpha virt. eigenvalues --    1.58163   1.58172   1.59058   1.59074   1.59089
 Alpha virt. eigenvalues --    1.59102   1.59157   1.59212   1.59220   1.59335
 Alpha virt. eigenvalues --    1.59674   1.59738   1.59751   1.60889   1.61199
 Alpha virt. eigenvalues --    1.61361   1.61981   1.62356   1.62523   1.62582
 Alpha virt. eigenvalues --    1.62944   1.63118   1.63499   1.63543   1.63816
 Alpha virt. eigenvalues --    1.65334   1.65594   1.65596   1.65940   1.65996
 Alpha virt. eigenvalues --    1.66052   1.66268   1.66429   1.66484   1.66515
 Alpha virt. eigenvalues --    1.67276   1.67499   1.68401   1.68893   1.68919
 Alpha virt. eigenvalues --    1.69097   1.69098   1.70037   1.70309   1.71125
 Alpha virt. eigenvalues --    1.71198   1.71271   1.71577   1.72105   1.72126
 Alpha virt. eigenvalues --    1.72884   1.73290   1.73359   1.73454   1.73582
 Alpha virt. eigenvalues --    1.76453   1.76659   1.76787   1.76835   1.76937
 Alpha virt. eigenvalues --    1.77800   1.78598   1.79190   1.79210   1.79266
 Alpha virt. eigenvalues --    1.79589   1.80937   1.80938   1.81022   1.81180
 Alpha virt. eigenvalues --    1.82745   1.82746   1.83763   1.84778   1.85243
 Alpha virt. eigenvalues --    1.85347   1.85368   1.85377   1.86533   1.87303
 Alpha virt. eigenvalues --    1.87514   1.88167   1.88735   1.89134   1.89699
 Alpha virt. eigenvalues --    1.90447   1.90583   1.93134   1.93330   1.93860
 Alpha virt. eigenvalues --    1.95120   1.95911   1.96062   1.96419   1.96683
 Alpha virt. eigenvalues --    1.97005   1.98545   1.98564   2.00233   2.00245
 Alpha virt. eigenvalues --    2.00670   2.00707   2.01588   2.01655   2.01834
 Alpha virt. eigenvalues --    2.02722   2.03009   2.03844   2.04098   2.04680
 Alpha virt. eigenvalues --    2.04785   2.04789   2.05091   2.06041   2.06580
 Alpha virt. eigenvalues --    2.06612   2.07169   2.07478   2.07553   2.07695
 Alpha virt. eigenvalues --    2.08572   2.09530   2.09601   2.09956   2.09999
 Alpha virt. eigenvalues --    2.10022   2.10022   2.10655   2.11876   2.12047
 Alpha virt. eigenvalues --    2.12718   2.13166   2.13175   2.15363   2.15689
 Alpha virt. eigenvalues --    2.16040   2.16044   2.16981   2.17042   2.17895
 Alpha virt. eigenvalues --    2.19505   2.19540   2.20872   2.20923   2.21022
 Alpha virt. eigenvalues --    2.21317   2.22024   2.25547   2.25647   2.27212
 Alpha virt. eigenvalues --    2.27279   2.29285   2.29312   2.29361   2.29376
 Alpha virt. eigenvalues --    2.29615   2.29629   2.30697   2.30729   2.31797
 Alpha virt. eigenvalues --    2.31918   2.32652   2.32817   2.33361   2.33530
 Alpha virt. eigenvalues --    2.34715   2.34715   2.35548   2.35773   2.35774
 Alpha virt. eigenvalues --    2.36106   2.36186   2.36187   2.36259   2.36277
 Alpha virt. eigenvalues --    2.36793   2.36817   2.37070   2.38048   2.41659
 Alpha virt. eigenvalues --    2.41660   2.42076   2.42348   2.42348   2.43508
 Alpha virt. eigenvalues --    2.43509   2.43684   2.44072   2.44579   2.44644
 Alpha virt. eigenvalues --    2.44657   2.45469   2.45515   2.45892   2.46129
 Alpha virt. eigenvalues --    2.46129   2.46230   2.46895   2.47607   2.47729
 Alpha virt. eigenvalues --    2.48585   2.48800   2.48801   2.50126   2.50127
 Alpha virt. eigenvalues --    2.50549   2.50627   2.52909   2.53045   2.53267
 Alpha virt. eigenvalues --    2.53292   2.53307   2.53339   2.53783   2.54138
 Alpha virt. eigenvalues --    2.54229   2.55192   2.55395   2.55975   2.56718
 Alpha virt. eigenvalues --    2.56936   2.56941   2.57333   2.57576   2.57946
 Alpha virt. eigenvalues --    2.57981   2.58928   2.59868   2.60542   2.60860
 Alpha virt. eigenvalues --    2.60938   2.62138   2.63033   2.63631   2.63930
 Alpha virt. eigenvalues --    2.64099   2.64172   2.64357   2.65384   2.66006
 Alpha virt. eigenvalues --    2.66917   2.68089   2.68130   2.70471   2.70799
 Alpha virt. eigenvalues --    2.72451   2.72550   2.72796   2.72987   2.73255
 Alpha virt. eigenvalues --    2.73269   2.74156   2.74159   2.75788   2.76001
 Alpha virt. eigenvalues --    2.77112   2.77206   2.77563   2.78472   2.78572
 Alpha virt. eigenvalues --    2.78595   2.80168   2.80836   2.81190   2.81483
 Alpha virt. eigenvalues --    2.81587   2.81675   2.83431   2.83454   2.84601
 Alpha virt. eigenvalues --    2.84625   2.84691   2.85127   2.85149   2.87042
 Alpha virt. eigenvalues --    2.87055   2.87297   2.87298   2.89878   2.90036
 Alpha virt. eigenvalues --    2.90742   2.91773   2.91803   2.92414   2.94083
 Alpha virt. eigenvalues --    2.94146   2.95216   2.95385   2.96481   2.96510
 Alpha virt. eigenvalues --    2.98410   2.99205   2.99294   3.01044   3.01496
 Alpha virt. eigenvalues --    3.02068   3.02305   3.06973   3.07582   3.07583
 Alpha virt. eigenvalues --    3.09223   3.09869   3.10054   3.12937   3.13020
 Alpha virt. eigenvalues --    3.14380   3.14437   3.15806   3.15987   3.18545
 Alpha virt. eigenvalues --    3.18945   3.19101   3.19115   3.20332   3.21532
 Alpha virt. eigenvalues --    3.21711   3.21907   3.22909   3.23593   3.24079
 Alpha virt. eigenvalues --    3.24182   3.24368   3.24372   3.27265   3.27476
 Alpha virt. eigenvalues --    3.28463   3.28463   3.31940   3.32090   3.32305
 Alpha virt. eigenvalues --    3.32528   3.34122   3.34153   3.34891   3.35968
 Alpha virt. eigenvalues --    3.37280   3.39194   3.40825   3.44608   3.45443
 Alpha virt. eigenvalues --    3.49827   3.51703   3.70782   3.75132   3.75148
 Alpha virt. eigenvalues --    3.75353   3.75353   3.75766   3.75766   3.76680
 Alpha virt. eigenvalues --    3.76701   3.77103   3.77121   3.77741   3.77744
 Alpha virt. eigenvalues --    3.79528   3.79532   3.79948   3.79950   3.80499
 Alpha virt. eigenvalues --    3.80530   3.81040   3.81049   3.83479   3.83480
 Alpha virt. eigenvalues --    3.84542   3.84567   3.94868   3.94871   3.95486
 Alpha virt. eigenvalues --    3.95486   3.96923   4.00708   4.00710   4.03575
 Alpha virt. eigenvalues --    4.03583   4.04433   4.05613   4.06133   4.06783
 Alpha virt. eigenvalues --    4.07963   4.09789   4.09791   4.11534   4.12025
 Alpha virt. eigenvalues --    4.13646   4.13975   4.14113   4.17056   4.17556
 Alpha virt. eigenvalues --    4.20401   4.21485   4.23727   4.26479   4.28414
 Alpha virt. eigenvalues --    4.29476   4.32124   4.32816   4.37529   4.37562
 Alpha virt. eigenvalues --    4.58595   4.91742   4.93897   4.94561   4.94562
 Alpha virt. eigenvalues --    4.96377   4.96377   4.97431   4.97431   5.20884
 Alpha virt. eigenvalues --    5.20884   5.25973   5.25973   5.30796   5.30796
 Alpha virt. eigenvalues --    5.32214   5.33939   5.66423   5.66424   5.70454
 Alpha virt. eigenvalues --    5.70455   5.76867   5.76873   5.77694   5.81127
 Alpha virt. eigenvalues --    7.82088   7.82344  17.20225  17.22337  17.42510
 Alpha virt. eigenvalues --   17.43316  17.48546  17.53400  23.43264  23.67095
 Alpha virt. eigenvalues --   23.77579  23.77592  23.78291  23.78317  23.78346
 Alpha virt. eigenvalues --   23.78551  23.78551  23.79420  23.79584  23.80248
 Alpha virt. eigenvalues --   23.80319  23.81119  23.81125  23.83510  23.86013
 Alpha virt. eigenvalues --   23.86013  23.86323  23.86344  23.87047  23.87121
 Alpha virt. eigenvalues --   23.87873  23.87892  23.89312  23.89397  24.03836
 Alpha virt. eigenvalues --   24.04184  24.16438  24.16813  49.88275  49.88275
 Alpha virt. eigenvalues --   49.91457  49.91462  49.93293  49.93364  49.93667
 Alpha virt. eigenvalues --   49.94396 188.93487 188.93932
          Condensed to atoms (all electrons):
 Mulliken charges:
               1
     1  C   -0.232167
     2  C    0.237463
     3  C   -0.092992
     4  C   -0.306479
     5  S    0.312056
     6  O   -0.378558
     7  H    0.104424
     8  C   -0.232163
     9  C    0.237463
    10  C   -0.092989
    11  C   -0.306481
    12  S    0.312053
    13  O   -0.378562
    14  H    0.104424
    15  C   -0.009705
    16  H    0.107460
    17  H    0.107447
    18  C   -0.219583
    19  H    0.122489
    20  H    0.122516
    21  C   -0.216756
    22  H    0.106207
    23  H    0.106194
    24  C   -0.218966
    25  H    0.106848
    26  H    0.106844
    27  C   -0.224994
    28  H    0.112954
    29  H    0.112957
    30  C    0.035238
    31  H    0.086389
    32  H    0.086386
    33  O   -0.384650
    34  C    0.000341
    35  H    0.093215
    36  H    0.093220
    37  C    0.002081
    38  H    0.095832
    39  H    0.095834
    40  O   -0.390378
    41  C    0.001589
    42  H    0.096755
    43  H    0.096755
    44  C   -0.008218
    45  H    0.093768
    46  H    0.093768
    47  O   -0.370352
    48  C   -0.101766
    49  H    0.088872
    50  H    0.115251
    51  H    0.088872
    52  C   -0.009705
    53  H    0.107447
    54  H    0.107460
    55  C   -0.219579
    56  H    0.122502
    57  H    0.122505
    58  C   -0.216762
    59  H    0.106198
    60  H    0.106203
    61  C   -0.218964
    62  H    0.106846
    63  H    0.106847
    64  C   -0.224997
    65  H    0.112957
    66  H    0.112955
    67  C    0.035239
    68  H    0.086389
    69  H    0.086387
    70  O   -0.384652
    71  C    0.000343
    72  H    0.093215
    73  H    0.093220
    74  C    0.002081
    75  H    0.095831
    76  H    0.095835
    77  O   -0.390377
    78  C    0.001588
    79  H    0.096756
    80  H    0.096754
    81  C   -0.008218
    82  H    0.093768
    83  H    0.093768
    84  O   -0.370352
    85  C   -0.101765
    86  H    0.088872
    87  H    0.115251
    88  H    0.088872
    89  H    0.125539
    90  H    0.125540
 Sum of Mulliken charges =  -0.00000
 Mulliken charges with hydrogens summed into heavy atoms:
               1
     1  C   -0.232167
     2  C    0.237463
     3  C    0.011432
     4  C   -0.180940
     5  S    0.312056
     6  O   -0.378558
     8  C   -0.232163
     9  C    0.237463
    10  C    0.011435
    11  C   -0.180941
    12  S    0.312053
    13  O   -0.378562
    15  C    0.205201
    18  C    0.025421
    21  C   -0.004355
    24  C   -0.005274
    27  C    0.000917
    30  C    0.208013
    33  O   -0.384650
    34  C    0.186777
    37  C    0.193747
    40  O   -0.390378
    41  C    0.195099
    44  C    0.179318
    47  O   -0.370352
    48  C    0.191230
    52  C    0.205201
    55  C    0.025428
    58  C   -0.004360
    61  C   -0.005272
    64  C    0.000915
    67  C    0.208015
    70  O   -0.384652
    71  C    0.186778
    74  C    0.193747
    77  O   -0.390377
    78  C    0.195098
    81  C    0.179319
    84  O   -0.370352
    85  C    0.191230
 Electronic spatial extent (au):  <R**2>=         133491.3448
 Charge=             -0.0000 electrons
 Dipole moment (field-independent basis, Debye):
    X=             -0.0001    Y=             -0.0000    Z=             -0.0006  Tot=              0.0006
 Quadrupole moment (field-independent basis, Debye-Ang):
   XX=           -223.6656   YY=           -249.5094   ZZ=           -263.3369
   XY=            -27.9279   XZ=              0.0163   YZ=              0.0022
 Traceless Quadrupole moment (field-independent basis, Debye-Ang):
   XX=             21.8384   YY=             -4.0054   ZZ=            -17.8329
   XY=            -27.9279   XZ=              0.0163   YZ=              0.0022
 Octapole moment (field-independent basis, Debye-Ang**2):
  XXX=             -0.0558  YYY=              0.0007  ZZZ=             -0.1167  XYY=              0.0122
  XXY=             -0.0140  XXZ=             -0.0596  XZZ=             -0.0005  YZZ=             -0.0009
  YYZ=              0.0191  XYZ=              0.1863
 Hexadecapole moment (field-independent basis, Debye-Ang**3):
 XXXX=        -147111.2301 YYYY=          -2827.3395 ZZZZ=           -445.3110 XXXY=         -11295.5364
 XXXZ=              4.0690 YYYX=             18.5156 YYYZ=              0.0213 ZZZX=             -0.0169
 ZZZY=             -0.0088 XXYY=         -29029.7740 XXZZ=         -28335.8580 YYZZ=           -616.9273
 XXYZ=              0.3567 YYXZ=             -0.0460 ZZXY=             -4.6168
 N-N= 4.142688707522D+03 E-N=-1.432259755526D+04  KE= 2.563788494862D+03
 No NMR shielding tensors so no spin-rotation constants.
 Leave Link  601 at Tue Mar 31 10:26:58 2020, MaxMem=  6710886400 cpu:               6.0 elap:               0.8
 (Enter /apps/gaussian/g16-a03/l9999.exe)
 1\1\GINC-CX1-141-15-1\FOpt\RB3LYP\6-311G(d,p)\C30H50O8S2\NS5018\31-Mar
 -2020\0\\#p opt b3lyp/6-311g**\\B.gjf\\0,1\C,-0.4822221482,0.252005408
 5,0.0460371244\C,-1.1069135575,1.4901340836,0.0517344412\C,-2.52971660
 72,1.4255072443,0.0681352799\C,-2.9861888041,0.1393769973,0.0748923256
 \S,-1.7021919773,-1.0150711245,0.0615774045\O,-0.3521606341,2.62545561
 29,0.0417484361\H,-3.1802746097,2.2876950066,0.0745569066\C,0.93382986
 7,-0.0299227951,0.0301527036\C,1.5585089956,-1.2680560187,0.0242266702
 \C,2.981312421,-1.203441398,0.0079659036\C,3.4378022851,0.0826853504,0
 .0015297808\S,2.1538141736,1.2371455246,0.0151111763\O,0.8037383949,-2
 .4033697307,0.0339929504\H,3.6318592813,-2.0656355851,0.0013702748\C,-
 1.0246496397,3.8866939361,0.0478630687\H,-1.6534571517,3.9650960127,0.
 9441237459\H,-1.6738200348,3.9628729194,-0.8339556746\C,0.030163093,4.
 9811897419,0.0344103774\H,0.6793498862,4.8503993384,0.9063136884\H,0.6
 598411702,4.8475354191,-0.8512550071\C,-0.5829385072,6.3857962876,0.03
 89348722\H,-1.2404793632,6.5029869522,-0.8316421075\H,-1.221619968,6.5
 055788034,0.9230967908\C,0.4697025763,7.5003957168,0.02598555\H,1.1271
 593595,7.3832988618,0.8965476608\H,1.1087276397,7.3803369601,-0.857797
 6776\C,-0.1416172474,8.9051267644,0.0300437952\H,-0.7731168295,9.03895
 97533,0.9150110633\H,-0.7915230438,9.0360225257,-0.8419410114\C,0.9061
 31496,10.0079789099,0.0172290354\H,1.5630562125,9.9258241464,0.8977862
 865\H,1.5444105984,9.9229195571,-0.8766636524\O,0.2431355888,11.261893
 7249,0.0221453913\C,1.1259553029,12.3668836303,0.0109458569\H,1.783263
 7526,12.3577773583,0.8925833694\H,1.7643359502,12.3548881933,-0.884458
 0161\C,0.2810868286,13.6287350145,0.0178902642\H,-0.356436634,13.64239
 97417,0.9133185782\H,-0.3754308601,13.6394561886,-0.8637471334\O,1.164
 1163537,14.7349530066,0.0066207731\C,0.5003577202,15.9852529117,0.0116
 818387\H,-0.1280969262,16.0942558559,0.9069374722\H,-0.1471547102,16.0
 913328401,-0.8702446088\C,1.5632343744,17.0695003618,-0.0014996006\H,2
 .192690886,16.9589136092,-0.8969179715\H,2.2117543604,16.9618353342,0.
 8805713014\O,0.8993588099,18.317777063,0.003568589\C,1.7889121958,19.4
 14913909,-0.007762055\H,2.422171728,19.4130625007,-0.9067774715\H,1.18
 36578891,20.3218617874,-0.0027624761\H,2.4412919347,19.4159862764,0.87
 74776377\C,1.4761996798,-3.6646213053,0.0266572088\H,2.1255409511,-3.7
 415748776,0.9082856727\H,2.1048380953,-3.7422628733,-0.8697879899\C,0.
 4213767273,-4.7591145122,0.0393850226\H,-0.2078404434,-4.6265258114,0.
 9255371004\H,-0.2282456258,-4.6273023471,-0.8320364836\C,1.0344900463,
 -6.1637158751,0.0328893542\H,1.6928184398,-6.2817865609,0.9027545666\H
 ,1.6723842808,-6.2825851516,-0.851963445\C,-0.0181288554,-7.2783344148
 ,0.0456471643\H,-0.6562420749,-7.1593045187,0.9302269576\H,-0.67648620
 51,-7.160257448,-0.8241009614\C,0.5932122963,-8.6830548999,0.039356032
 1\H,1.2440070611,-8.8149399187,0.9105257357\H,1.223806873,-8.815865614
 5,-0.8464071033\C,-0.4545100298,-9.78593941,0.0519874587\H,-1.09193189
 17,-9.7018537411,0.9465817788\H,-1.11227446,-9.7028507104,-0.827852026
 6\O,0.2085136838,-11.0398297791,0.0450927669\C,-0.6742524166,-12.14486
 91153,0.0557916968\H,-1.3120148238,-12.1337991035,0.9516480405\H,-1.33
 21710212,-12.1349070003,-0.825381643\C,0.1706609774,-13.4066786275,0.0
 469843596\H,0.8276957783,-13.4183412657,0.9282245155\H,0.8076597302,-1
 3.4193388407,-0.8488324641\O,-0.7123221819,-14.5129396449,0.0575630841
 \C,-0.0485187608,-15.7632077314,0.0508608032\H,0.5994201927,-15.870195
 96,0.932364268\H,0.5795109949,-15.8712396504,-0.8448106808\C,-1.111348
 6197,-16.8475082142,0.0634043195\H,-1.7602891605,-16.7389413805,-0.818
 2465526\H,-1.7403863992,-16.73788642,0.9592355904\O,-0.4474277992,-18.
 0957529566,0.0567110699\C,-1.3369336586,-19.1929353144,0.0673354379\H,
 -1.9897463658,-19.193112591,-0.8175856457\H,-0.7316473128,-20.09985413
 99,0.0610964471\H,-1.9697533516,-19.1920429743,0.966662005\H,-4.010347
 6965,-0.1995792989,0.0870034872\H,4.4619614744,0.4216495089,-0.0105008
 687\\Version=ES64L-G16RevA.03\State=1-A\HF=-2571.8791525\RMSD=3.850e-0
 9\RMSF=1.208e-06\Dipole=-0.0000018,-0.0000591,-0.0002481\Quadrupole=-1
 .2253378,14.4815784,-13.2562406,21.4871817,-0.1603976,-0.2613953\PG=C0
 1 [X(C30H50O8S2)]\\@


 Sometimes the fool who rushes in gets the job done.
                                    -- Al Bernstein
 Job cpu time:       0 days 11 hours 54 minutes 54.0 seconds.
 Elapsed time:       0 days  1 hours 29 minutes 55.6 seconds.
 File lengths (MBytes):  RWF=    661 Int=      0 D2E=      0 Chk=     81 Scr=      1
 Normal termination of Gaussian 16 at Tue Mar 31 10:26:59 2020.
