 Entering Gaussian System, Link 0=g16
 Input=E.gjf
 Output=E.log
 Initial command:
 /apps/gaussian/g16-a03/l1.exe "/tmp/pbs.1260826.pbs/Gau-24224.inp" -scrdir="/tmp/pbs.1260826.pbs/"
 Entering Link 1 = /apps/gaussian/g16-a03/l1.exe PID=     24225.
  
 Copyright (c) 1988,1990,1992,1993,1995,1998,2003,2009,2016,
            Gaussian, Inc.  All Rights Reserved.
  
 This is part of the Gaussian(R) 16 program.  It is based on
 the Gaussian(R) 09 system (copyright 2009, Gaussian, Inc.),
 the Gaussian(R) 03 system (copyright 2003, Gaussian, Inc.),
 the Gaussian(R) 98 system (copyright 1998, Gaussian, Inc.),
 the Gaussian(R) 94 system (copyright 1995, Gaussian, Inc.),
 the Gaussian 92(TM) system (copyright 1992, Gaussian, Inc.),
 the Gaussian 90(TM) system (copyright 1990, Gaussian, Inc.),
 the Gaussian 88(TM) system (copyright 1988, Gaussian, Inc.),
 the Gaussian 86(TM) system (copyright 1986, Carnegie Mellon
 University), and the Gaussian 82(TM) system (copyright 1983,
 Carnegie Mellon University). Gaussian is a federally registered
 trademark of Gaussian, Inc.
  
 This software contains proprietary and confidential information,
 including trade secrets, belonging to Gaussian, Inc.
  
 This software is provided under written license and may be
 used, copied, transmitted, or stored only in accord with that
 written license.
  
 The following legend is applicable only to US Government
 contracts under FAR:
  
                    RESTRICTED RIGHTS LEGEND
  
 Use, reproduction and disclosure by the US Government is
 subject to restrictions as set forth in subparagraphs (a)
 and (c) of the Commercial Computer Software - Restricted
 Rights clause in FAR 52.227-19.
  
 Gaussian, Inc.
 340 Quinnipiac St., Bldg. 40, Wallingford CT 06492
  
  
 ---------------------------------------------------------------
 Warning -- This program may not be used in any manner that
 competes with the business of Gaussian, Inc. or will provide
 assistance to any competitor of Gaussian, Inc.  The licensee
 of this program is prohibited from giving any competitor of
 Gaussian, Inc. access to this program.  By using this program,
 the user acknowledges that Gaussian, Inc. is engaged in the
 business of creating and licensing software in the field of
 computational chemistry and represents and warrants to the
 licensee that it is not a competitor of Gaussian, Inc. and that
 it will not use this program in any manner prohibited above.
 ---------------------------------------------------------------
  

 Cite this work as:
 Gaussian 16, Revision A.03,
 M. J. Frisch, G. W. Trucks, H. B. Schlegel, G. E. Scuseria, 
 M. A. Robb, J. R. Cheeseman, G. Scalmani, V. Barone, 
 G. A. Petersson, H. Nakatsuji, X. Li, M. Caricato, A. V. Marenich, 
 J. Bloino, B. G. Janesko, R. Gomperts, B. Mennucci, H. P. Hratchian, 
 J. V. Ortiz, A. F. Izmaylov, J. L. Sonnenberg, D. Williams-Young, 
 F. Ding, F. Lipparini, F. Egidi, J. Goings, B. Peng, A. Petrone, 
 T. Henderson, D. Ranasinghe, V. G. Zakrzewski, J. Gao, N. Rega, 
 G. Zheng, W. Liang, M. Hada, M. Ehara, K. Toyota, R. Fukuda, 
 J. Hasegawa, M. Ishida, T. Nakajima, Y. Honda, O. Kitao, H. Nakai, 
 T. Vreven, K. Throssell, J. A. Montgomery, Jr., J. E. Peralta, 
 F. Ogliaro, M. J. Bearpark, J. J. Heyd, E. N. Brothers, K. N. Kudin, 
 V. N. Staroverov, T. A. Keith, R. Kobayashi, J. Normand, 
 K. Raghavachari, A. P. Rendell, J. C. Burant, S. S. Iyengar, 
 J. Tomasi, M. Cossi, J. M. Millam, M. Klene, C. Adamo, R. Cammi, 
 J. W. Ochterski, R. L. Martin, K. Morokuma, O. Farkas, 
 J. B. Foresman, and D. J. Fox, Gaussian, Inc., Wallingford CT, 2016.
 
 ******************************************
 Gaussian 16:  ES64L-G16RevA.03 25-Dec-2016
                31-Mar-2020 
 ******************************************
 %mem=50GB
 %nprocshared=8
 Will use up to    8 processors via shared memory.
 ---------------------
 #p opt b3lyp/6-311g**
 ---------------------
 1/18=20,19=15,26=3,38=1/1,3;
 2/9=110,12=2,17=6,18=5,40=1/2;
 3/5=4,6=6,7=101,11=2,25=1,30=1,71=1,74=-5/1,2,3;
 4//1;
 5/5=2,38=5/2;
 6/7=2,8=2,9=2,10=2,28=1/1;
 7//1,2,3,16;
 1/18=20,19=15,26=3/3(2);
 2/9=110/2;
 99//99;
 2/9=110/2;
 3/5=4,6=6,7=101,11=2,25=1,30=1,71=1,74=-5/1,2,3;
 4/5=5,16=3,69=1/1;
 5/5=2,38=5/2;
 7//1,2,3,16;
 1/18=20,19=15,26=3/3(-5);
 2/9=110/2;
 6/7=2,8=2,9=2,10=2,19=2,28=1/1;
 99/9=1/99;
 Leave Link    1 at Tue Mar 31 07:59:49 2020, MaxMem=  6710886400 cpu:               0.6 elap:               0.1
 (Enter /apps/gaussian/g16-a03/l101.exe)
 -----
 E.gjf
 -----
 Symbolic Z-matrix:
 Charge =  0 Multiplicity = 1
 C                    -0.706     0.154     0. 
 C                    -1.31      1.401    -0.001 
 C                    -2.733     1.362     0.001 
 C                    -3.212     0.086     0.004 
 S                    -1.948    -1.091     0.004 
 O                    -0.536     2.524    -0.003 
 H                    -3.366     2.237     0.002 
 C                     0.706    -0.154    -0.002 
 C                     1.31     -1.401    -0.001 
 C                     2.733    -1.363    -0.003 
 C                     3.212    -0.086    -0.006 
 S                     1.949     1.091    -0.005 
 O                     0.536    -2.524     0.002 
 H                     3.368    -2.237    -0.003 
 C                    -1.175     3.765     0.08 
 H                    -1.803     3.879     0.971 
 H                    -1.805     3.876    -0.81 
 C                    -0.088     4.824     0.076 
 H                     0.549     4.709     0.964 
 H                     0.546     4.706    -0.814 
 C                    -0.918     6.38      0.011 
 H                    -1.546     6.494     0.902 
 H                    -1.548     6.491    -0.879 
 C                     0.169     7.439     0.007 
 H                     0.806     7.324     0.895 
 H                     0.803     7.321    -0.883 
 O                    -0.483     8.695     0.006 
 C                     0.41      9.795     0.003 
 H                     1.057     9.778     0.891 
 H                     1.054     9.775    -0.887 
 C                    -0.425     11.063    0.002 
 H                    -1.071     11.08     0.892 
 H                    -1.074     11.079   -0.885 
 O                     0.467     12.16    -0.001 
 C                    -0.184     13.417   -0.001 
 H                    -0.819     13.531    0.888 
 H                    -0.822     13.529   -0.889 
 C                     0.889     14.49    -0.004 
 H                     1.526     14.374   -0.894 
 H                     1.529     14.376    0.884 
 O                     0.237     15.744   -0.005 
 C                     1.137     16.833   -0.008 
 H                     1.779     16.826   -0.901 
 H                     0.54      17.746   -0.009 
 H                     1.782     16.829    0.883 
 C                     1.148    -3.831     0.022 
 H                     1.777    -3.942     0.912 
 H                     1.774    -3.945    -0.869 
 C                     0.06     -4.89      0.026 
 H                    -0.572    -4.772     0.916 
 H                    -0.575    -4.775    -0.863 
 C                     0.726    -6.262    -0.084 
 H                     1.355    -6.373     0.806 
 H                     1.352    -6.376    -0.975 
 C                    -0.362    -7.321    -0.08 
 H                    -0.994    -7.203     0.81 
 H                    -0.997    -7.206    -0.969 
 O                     0.29     -8.577    -0.079 
 C                    -0.602    -9.677    -0.075 
 H                    -1.247    -9.657     0.815 
 H                    -1.249    -9.66     -0.963 
 C                     0.233    -10.945   -0.075 
 H                     0.882    -10.961    0.813 
 H                     0.879    -10.963   -0.964 
 O                    -0.661    -12.042   -0.072 
 C                    -0.01     -13.299   -0.07 
 H                     0.629    -13.41     0.819 
 H                     0.626    -13.414   -0.959 
 C                    -1.084    -14.372   -0.066 
 H                    -1.723    -14.258   -0.954 
 H                    -1.72     -14.255    0.824 
 O                    -0.432    -15.626   -0.065 
 C                    -1.331    -16.715   -0.062 
 H                    -1.976    -16.711   -0.953 
 H                    -0.734    -17.628   -0.061 
 H                    -1.973    -16.707    0.831 
 H                     4.235     0.314    -0.008 
 H                    -4.283    -0.453     0.006 
 
 ITRead=  0  0  0  0  0  0  0  0  0  0  0  0  0  0  0  0  0  0  0  0
 ITRead=  0  0  0  0  0  0  0  0  0  0  0  0  0  0  0  0  0  0  0  0
 ITRead=  0  0  0  0  0  0  0  0  0  0  0  0  0  0  0  0  0  0  0  0
 ITRead=  0  0  0  0  0  0  0  0  0  0  0  0  0  0  0  0  0  0
 MicOpt= -1 -1 -1 -1 -1 -1 -1 -1 -1 -1 -1 -1 -1 -1 -1 -1 -1 -1 -1 -1
 MicOpt= -1 -1 -1 -1 -1 -1 -1 -1 -1 -1 -1 -1 -1 -1 -1 -1 -1 -1 -1 -1
 MicOpt= -1 -1 -1 -1 -1 -1 -1 -1 -1 -1 -1 -1 -1 -1 -1 -1 -1 -1 -1 -1
 MicOpt= -1 -1 -1 -1 -1 -1 -1 -1 -1 -1 -1 -1 -1 -1 -1 -1 -1 -1
 NAtoms=     78 NQM=       78 NQMF=       0 NMMI=      0 NMMIF=      0
                NMic=       0 NMicF=      0.
                    Isotopes and Nuclear Properties:
 (Nuclear quadrupole moments (NQMom) in fm**2, nuclear magnetic moments (NMagM)
  in nuclear magnetons)

  Atom         1           2           3           4           5           6           7           8           9          10
 IAtWgt=          12          12          12          12          32          16           1          12          12          12
 AtmWgt=  12.0000000  12.0000000  12.0000000  12.0000000  31.9720718  15.9949146   1.0078250  12.0000000  12.0000000  12.0000000
 NucSpn=           0           0           0           0           0           0           1           0           0           0
 AtZEff=  -0.0000000  -0.0000000  -0.0000000  -0.0000000  -0.0000000  -0.0000000  -0.0000000  -0.0000000  -0.0000000  -0.0000000
 NQMom=    0.0000000   0.0000000   0.0000000   0.0000000   0.0000000   0.0000000   0.0000000   0.0000000   0.0000000   0.0000000
 NMagM=    0.0000000   0.0000000   0.0000000   0.0000000   0.0000000   0.0000000   2.7928460   0.0000000   0.0000000   0.0000000
 AtZNuc=   6.0000000   6.0000000   6.0000000   6.0000000  16.0000000   8.0000000   1.0000000   6.0000000   6.0000000   6.0000000

  Atom        11          12          13          14          15          16          17          18          19          20
 IAtWgt=          12          32          16           1          12           1           1          12           1           1
 AtmWgt=  12.0000000  31.9720718  15.9949146   1.0078250  12.0000000   1.0078250   1.0078250  12.0000000   1.0078250   1.0078250
 NucSpn=           0           0           0           1           0           1           1           0           1           1
 AtZEff=  -0.0000000  -0.0000000  -0.0000000  -0.0000000  -0.0000000  -0.0000000  -0.0000000  -0.0000000  -0.0000000  -0.0000000
 NQMom=    0.0000000   0.0000000   0.0000000   0.0000000   0.0000000   0.0000000   0.0000000   0.0000000   0.0000000   0.0000000
 NMagM=    0.0000000   0.0000000   0.0000000   2.7928460   0.0000000   2.7928460   2.7928460   0.0000000   2.7928460   2.7928460
 AtZNuc=   6.0000000  16.0000000   8.0000000   1.0000000   6.0000000   1.0000000   1.0000000   6.0000000   1.0000000   1.0000000

  Atom        21          22          23          24          25          26          27          28          29          30
 IAtWgt=          12           1           1          12           1           1          16          12           1           1
 AtmWgt=  12.0000000   1.0078250   1.0078250  12.0000000   1.0078250   1.0078250  15.9949146  12.0000000   1.0078250   1.0078250
 NucSpn=           0           1           1           0           1           1           0           0           1           1
 AtZEff=  -0.0000000  -0.0000000  -0.0000000  -0.0000000  -0.0000000  -0.0000000  -0.0000000  -0.0000000  -0.0000000  -0.0000000
 NQMom=    0.0000000   0.0000000   0.0000000   0.0000000   0.0000000   0.0000000   0.0000000   0.0000000   0.0000000   0.0000000
 NMagM=    0.0000000   2.7928460   2.7928460   0.0000000   2.7928460   2.7928460   0.0000000   0.0000000   2.7928460   2.7928460
 AtZNuc=   6.0000000   1.0000000   1.0000000   6.0000000   1.0000000   1.0000000   8.0000000   6.0000000   1.0000000   1.0000000

  Atom        31          32          33          34          35          36          37          38          39          40
 IAtWgt=          12           1           1          16          12           1           1          12           1           1
 AtmWgt=  12.0000000   1.0078250   1.0078250  15.9949146  12.0000000   1.0078250   1.0078250  12.0000000   1.0078250   1.0078250
 NucSpn=           0           1           1           0           0           1           1           0           1           1
 AtZEff=  -0.0000000  -0.0000000  -0.0000000  -0.0000000  -0.0000000  -0.0000000  -0.0000000  -0.0000000  -0.0000000  -0.0000000
 NQMom=    0.0000000   0.0000000   0.0000000   0.0000000   0.0000000   0.0000000   0.0000000   0.0000000   0.0000000   0.0000000
 NMagM=    0.0000000   2.7928460   2.7928460   0.0000000   0.0000000   2.7928460   2.7928460   0.0000000   2.7928460   2.7928460
 AtZNuc=   6.0000000   1.0000000   1.0000000   8.0000000   6.0000000   1.0000000   1.0000000   6.0000000   1.0000000   1.0000000

  Atom        41          42          43          44          45          46          47          48          49          50
 IAtWgt=          16          12           1           1           1          12           1           1          12           1
 AtmWgt=  15.9949146  12.0000000   1.0078250   1.0078250   1.0078250  12.0000000   1.0078250   1.0078250  12.0000000   1.0078250
 NucSpn=           0           0           1           1           1           0           1           1           0           1
 AtZEff=  -0.0000000  -0.0000000  -0.0000000  -0.0000000  -0.0000000  -0.0000000  -0.0000000  -0.0000000  -0.0000000  -0.0000000
 NQMom=    0.0000000   0.0000000   0.0000000   0.0000000   0.0000000   0.0000000   0.0000000   0.0000000   0.0000000   0.0000000
 NMagM=    0.0000000   0.0000000   2.7928460   2.7928460   2.7928460   0.0000000   2.7928460   2.7928460   0.0000000   2.7928460
 AtZNuc=   8.0000000   6.0000000   1.0000000   1.0000000   1.0000000   6.0000000   1.0000000   1.0000000   6.0000000   1.0000000

  Atom        51          52          53          54          55          56          57          58          59          60
 IAtWgt=           1          12           1           1          12           1           1          16          12           1
 AtmWgt=   1.0078250  12.0000000   1.0078250   1.0078250  12.0000000   1.0078250   1.0078250  15.9949146  12.0000000   1.0078250
 NucSpn=           1           0           1           1           0           1           1           0           0           1
 AtZEff=  -0.0000000  -0.0000000  -0.0000000  -0.0000000  -0.0000000  -0.0000000  -0.0000000  -0.0000000  -0.0000000  -0.0000000
 NQMom=    0.0000000   0.0000000   0.0000000   0.0000000   0.0000000   0.0000000   0.0000000   0.0000000   0.0000000   0.0000000
 NMagM=    2.7928460   0.0000000   2.7928460   2.7928460   0.0000000   2.7928460   2.7928460   0.0000000   0.0000000   2.7928460
 AtZNuc=   1.0000000   6.0000000   1.0000000   1.0000000   6.0000000   1.0000000   1.0000000   8.0000000   6.0000000   1.0000000

  Atom        61          62          63          64          65          66          67          68          69          70
 IAtWgt=           1          12           1           1          16          12           1           1          12           1
 AtmWgt=   1.0078250  12.0000000   1.0078250   1.0078250  15.9949146  12.0000000   1.0078250   1.0078250  12.0000000   1.0078250
 NucSpn=           1           0           1           1           0           0           1           1           0           1
 AtZEff=  -0.0000000  -0.0000000  -0.0000000  -0.0000000  -0.0000000  -0.0000000  -0.0000000  -0.0000000  -0.0000000  -0.0000000
 NQMom=    0.0000000   0.0000000   0.0000000   0.0000000   0.0000000   0.0000000   0.0000000   0.0000000   0.0000000   0.0000000
 NMagM=    2.7928460   0.0000000   2.7928460   2.7928460   0.0000000   0.0000000   2.7928460   2.7928460   0.0000000   2.7928460
 AtZNuc=   1.0000000   6.0000000   1.0000000   1.0000000   8.0000000   6.0000000   1.0000000   1.0000000   6.0000000   1.0000000

  Atom        71          72          73          74          75          76          77          78
 IAtWgt=           1          16          12           1           1           1           1           1
 AtmWgt=   1.0078250  15.9949146  12.0000000   1.0078250   1.0078250   1.0078250   1.0078250   1.0078250
 NucSpn=           1           0           0           1           1           1           1           1
 AtZEff=  -0.0000000  -0.0000000  -0.0000000  -0.0000000  -0.0000000  -0.0000000  -0.0000000  -0.0000000
 NQMom=    0.0000000   0.0000000   0.0000000   0.0000000   0.0000000   0.0000000   0.0000000   0.0000000
 NMagM=    2.7928460   0.0000000   0.0000000   2.7928460   2.7928460   2.7928460   2.7928460   2.7928460
 AtZNuc=   1.0000000   8.0000000   6.0000000   1.0000000   1.0000000   1.0000000   1.0000000   1.0000000
 Leave Link  101 at Tue Mar 31 07:59:49 2020, MaxMem=  6710886400 cpu:               3.6 elap:               0.5
 (Enter /apps/gaussian/g16-a03/l103.exe)

 GradGradGradGradGradGradGradGradGradGradGradGradGradGradGradGradGradGrad
 Berny optimization.
 Initialization pass.
                           ----------------------------
                           !    Initial Parameters    !
                           ! (Angstroms and Degrees)  !
 --------------------------                            --------------------------
 ! Name  Definition              Value          Derivative Info.                !
 --------------------------------------------------------------------------------
 ! R1    R(1,2)                  1.3856         estimate D2E/DX2                !
 ! R2    R(1,5)                  1.7586         estimate D2E/DX2                !
 ! R3    R(1,8)                  1.4452         estimate D2E/DX2                !
 ! R4    R(2,3)                  1.4235         estimate D2E/DX2                !
 ! R5    R(2,6)                  1.3639         estimate D2E/DX2                !
 ! R6    R(3,4)                  1.3629         estimate D2E/DX2                !
 ! R7    R(3,7)                  1.08           estimate D2E/DX2                !
 ! R8    R(4,5)                  1.7271         estimate D2E/DX2                !
 ! R9    R(4,78)                 1.199          estimate D2E/DX2                !
 ! R10   R(6,15)                 1.3983         estimate D2E/DX2                !
 ! R11   R(8,9)                  1.3856         estimate D2E/DX2                !
 ! R12   R(8,12)                 1.7593         estimate D2E/DX2                !
 ! R13   R(9,10)                 1.4235         estimate D2E/DX2                !
 ! R14   R(9,13)                 1.3639         estimate D2E/DX2                !
 ! R15   R(10,11)                1.3639         estimate D2E/DX2                !
 ! R16   R(10,14)                1.0803         estimate D2E/DX2                !
 ! R17   R(11,12)                1.7264         estimate D2E/DX2                !
 ! R18   R(11,77)                1.0984         estimate D2E/DX2                !
 ! R19   R(13,46)                1.4433         estimate D2E/DX2                !
 ! R20   R(15,16)                1.096          estimate D2E/DX2                !
 ! R21   R(15,17)                1.096          estimate D2E/DX2                !
 ! R22   R(15,18)                1.5176         estimate D2E/DX2                !
 ! R23   R(18,19)                1.0989         estimate D2E/DX2                !
 ! R24   R(18,20)                1.0991         estimate D2E/DX2                !
 ! R25   R(18,21)                1.7647         estimate D2E/DX2                !
 ! R26   R(21,22)                1.096          estimate D2E/DX2                !
 ! R27   R(21,23)                1.096          estimate D2E/DX2                !
 ! R28   R(21,24)                1.5176         estimate D2E/DX2                !
 ! R29   R(24,25)                1.0989         estimate D2E/DX2                !
 ! R30   R(24,26)                1.0991         estimate D2E/DX2                !
 ! R31   R(24,27)                1.4151         estimate D2E/DX2                !
 ! R32   R(27,28)                1.4168         estimate D2E/DX2                !
 ! R33   R(28,29)                1.0988         estimate D2E/DX2                !
 ! R34   R(28,30)                1.0987         estimate D2E/DX2                !
 ! R35   R(28,31)                1.5182         estimate D2E/DX2                !
 ! R36   R(31,32)                1.0999         estimate D2E/DX2                !
 ! R37   R(31,33)                1.0992         estimate D2E/DX2                !
 ! R38   R(31,34)                1.4139         estimate D2E/DX2                !
 ! R39   R(34,35)                1.4156         estimate D2E/DX2                !
 ! R40   R(35,36)                1.0984         estimate D2E/DX2                !
 ! R41   R(35,37)                1.0992         estimate D2E/DX2                !
 ! R42   R(35,38)                1.5175         estimate D2E/DX2                !
 ! R43   R(38,39)                1.1006         estimate D2E/DX2                !
 ! R44   R(38,40)                1.1005         estimate D2E/DX2                !
 ! R45   R(38,41)                1.4134         estimate D2E/DX2                !
 ! R46   R(41,42)                1.4128         estimate D2E/DX2                !
 ! R47   R(42,43)                1.0998         estimate D2E/DX2                !
 ! R48   R(42,44)                1.0909         estimate D2E/DX2                !
 ! R49   R(42,45)                1.1            estimate D2E/DX2                !
 ! R50   R(46,47)                1.0955         estimate D2E/DX2                !
 ! R51   R(46,48)                1.0949         estimate D2E/DX2                !
 ! R52   R(46,49)                1.5183         estimate D2E/DX2                !
 ! R53   R(49,50)                1.0979         estimate D2E/DX2                !
 ! R54   R(49,51)                1.0985         estimate D2E/DX2                !
 ! R55   R(49,52)                1.5291         estimate D2E/DX2                !
 ! R56   R(52,53)                1.0955         estimate D2E/DX2                !
 ! R57   R(52,54)                1.0949         estimate D2E/DX2                !
 ! R58   R(52,55)                1.5183         estimate D2E/DX2                !
 ! R59   R(55,56)                1.0979         estimate D2E/DX2                !
 ! R60   R(55,57)                1.0985         estimate D2E/DX2                !
 ! R61   R(55,58)                1.4151         estimate D2E/DX2                !
 ! R62   R(58,59)                1.4162         estimate D2E/DX2                !
 ! R63   R(59,60)                1.0993         estimate D2E/DX2                !
 ! R64   R(59,61)                1.0988         estimate D2E/DX2                !
 ! R65   R(59,62)                1.5182         estimate D2E/DX2                !
 ! R66   R(62,63)                1.1            estimate D2E/DX2                !
 ! R67   R(62,64)                1.0991         estimate D2E/DX2                !
 ! R68   R(62,65)                1.4152         estimate D2E/DX2                !
 ! R69   R(65,66)                1.4156         estimate D2E/DX2                !
 ! R70   R(66,67)                1.1004         estimate D2E/DX2                !
 ! R71   R(66,68)                1.0991         estimate D2E/DX2                !
 ! R72   R(66,69)                1.5182         estimate D2E/DX2                !
 ! R73   R(69,70)                1.0999         estimate D2E/DX2                !
 ! R74   R(69,71)                1.1001         estimate D2E/DX2                !
 ! R75   R(69,72)                1.4134         estimate D2E/DX2                !
 ! R76   R(72,73)                1.4121         estimate D2E/DX2                !
 ! R77   R(73,74)                1.1            estimate D2E/DX2                !
 ! R78   R(73,75)                1.0909         estimate D2E/DX2                !
 ! R79   R(73,76)                1.0999         estimate D2E/DX2                !
 ! A1    A(2,1,5)              109.2254         estimate D2E/DX2                !
 ! A2    A(2,1,8)              128.1489         estimate D2E/DX2                !
 ! A3    A(5,1,8)              122.6258         estimate D2E/DX2                !
 ! A4    A(1,2,3)              114.2738         estimate D2E/DX2                !
 ! A5    A(1,2,6)              119.5806         estimate D2E/DX2                !
 ! A6    A(3,2,6)              126.1456         estimate D2E/DX2                !
 ! A7    A(2,3,4)              112.1457         estimate D2E/DX2                !
 ! A8    A(2,3,7)              124.3132         estimate D2E/DX2                !
 ! A9    A(4,3,7)              123.541          estimate D2E/DX2                !
 ! A10   A(3,4,5)              112.383          estimate D2E/DX2                !
 ! A11   A(3,4,78)             137.2904         estimate D2E/DX2                !
 ! A12   A(5,4,78)             110.3265         estimate D2E/DX2                !
 ! A13   A(1,5,4)               91.9721         estimate D2E/DX2                !
 ! A14   A(2,6,15)             118.1203         estimate D2E/DX2                !
 ! A15   A(1,8,9)              128.1489         estimate D2E/DX2                !
 ! A16   A(1,8,12)             122.6488         estimate D2E/DX2                !
 ! A17   A(9,8,12)             109.2023         estimate D2E/DX2                !
 ! A18   A(8,9,10)             114.314          estimate D2E/DX2                !
 ! A19   A(8,9,13)             119.5806         estimate D2E/DX2                !
 ! A20   A(10,9,13)            126.1053         estimate D2E/DX2                !
 ! A21   A(9,10,11)            112.0907         estimate D2E/DX2                !
 ! A22   A(9,10,14)            124.4704         estimate D2E/DX2                !
 ! A23   A(11,10,14)           123.4389         estimate D2E/DX2                !
 ! A24   A(10,11,12)           112.4203         estimate D2E/DX2                !
 ! A25   A(10,11,77)           131.9169         estimate D2E/DX2                !
 ! A26   A(12,11,77)           115.6628         estimate D2E/DX2                !
 ! A27   A(8,12,11)             91.9726         estimate D2E/DX2                !
 ! A28   A(9,13,46)            120.3319         estimate D2E/DX2                !
 ! A29   A(6,15,16)            113.7286         estimate D2E/DX2                !
 ! A30   A(6,15,17)            107.719          estimate D2E/DX2                !
 ! A31   A(6,15,18)            106.9679         estimate D2E/DX2                !
 ! A32   A(16,15,17)           108.6772         estimate D2E/DX2                !
 ! A33   A(16,15,18)           109.8751         estimate D2E/DX2                !
 ! A34   A(17,15,18)           109.8096         estimate D2E/DX2                !
 ! A35   A(15,18,19)           109.8799         estimate D2E/DX2                !
 ! A36   A(15,18,20)           109.9007         estimate D2E/DX2                !
 ! A37   A(15,18,21)           106.1706         estimate D2E/DX2                !
 ! A38   A(19,18,20)           107.9837         estimate D2E/DX2                !
 ! A39   A(19,18,21)           113.2459         estimate D2E/DX2                !
 ! A40   A(20,18,21)           109.6421         estimate D2E/DX2                !
 ! A41   A(18,21,22)           109.3451         estimate D2E/DX2                !
 ! A42   A(18,21,23)           112.9261         estimate D2E/DX2                !
 ! A43   A(18,21,24)           106.1706         estimate D2E/DX2                !
 ! A44   A(22,21,23)           108.6772         estimate D2E/DX2                !
 ! A45   A(22,21,24)           109.8751         estimate D2E/DX2                !
 ! A46   A(23,21,24)           109.8096         estimate D2E/DX2                !
 ! A47   A(21,24,25)           109.8799         estimate D2E/DX2                !
 ! A48   A(21,24,26)           109.9007         estimate D2E/DX2                !
 ! A49   A(21,24,27)           106.8183         estimate D2E/DX2                !
 ! A50   A(25,24,26)           107.9837         estimate D2E/DX2                !
 ! A51   A(25,24,27)           111.1327         estimate D2E/DX2                !
 ! A52   A(26,24,27)           111.13           estimate D2E/DX2                !
 ! A53   A(24,27,28)           113.4955         estimate D2E/DX2                !
 ! A54   A(27,28,29)           110.9397         estimate D2E/DX2                !
 ! A55   A(27,28,30)           110.9161         estimate D2E/DX2                !
 ! A56   A(27,28,31)           107.5641         estimate D2E/DX2                !
 ! A57   A(29,28,30)           108.0112         estimate D2E/DX2                !
 ! A58   A(29,28,31)           109.7115         estimate D2E/DX2                !
 ! A59   A(30,28,31)           109.6957         estimate D2E/DX2                !
 ! A60   A(28,31,32)           109.5971         estimate D2E/DX2                !
 ! A61   A(28,31,33)           109.7194         estimate D2E/DX2                !
 ! A62   A(28,31,34)           107.519          estimate D2E/DX2                !
 ! A63   A(32,31,33)           107.8164         estimate D2E/DX2                !
 ! A64   A(32,31,34)           111.1168         estimate D2E/DX2                !
 ! A65   A(33,31,34)           111.0688         estimate D2E/DX2                !
 ! A66   A(31,34,35)           113.5048         estimate D2E/DX2                !
 ! A67   A(34,35,36)           110.9785         estimate D2E/DX2                !
 ! A68   A(34,35,37)           110.9419         estimate D2E/DX2                !
 ! A69   A(34,35,38)           107.6203         estimate D2E/DX2                !
 ! A70   A(36,35,37)           107.9225         estimate D2E/DX2                !
 ! A71   A(36,35,38)           109.6936         estimate D2E/DX2                !
 ! A72   A(37,35,38)           109.6814         estimate D2E/DX2                !
 ! A73   A(35,38,39)           109.6532         estimate D2E/DX2                !
 ! A74   A(35,38,40)           109.6559         estimate D2E/DX2                !
 ! A75   A(35,38,41)           107.5285         estimate D2E/DX2                !
 ! A76   A(39,38,40)           107.7577         estimate D2E/DX2                !
 ! A77   A(39,38,41)           111.0961         estimate D2E/DX2                !
 ! A78   A(40,38,41)           111.1462         estimate D2E/DX2                !
 ! A79   A(38,41,42)           112.9566         estimate D2E/DX2                !
 ! A80   A(41,42,43)           111.6338         estimate D2E/DX2                !
 ! A81   A(41,42,44)           107.248          estimate D2E/DX2                !
 ! A82   A(41,42,45)           111.6557         estimate D2E/DX2                !
 ! A83   A(43,42,44)           108.9072         estimate D2E/DX2                !
 ! A84   A(43,42,45)           108.3838         estimate D2E/DX2                !
 ! A85   A(44,42,45)           108.9473         estimate D2E/DX2                !
 ! A86   A(13,46,47)           110.272          estimate D2E/DX2                !
 ! A87   A(13,46,48)           108.9926         estimate D2E/DX2                !
 ! A88   A(13,46,49)           109.1351         estimate D2E/DX2                !
 ! A89   A(47,46,48)           108.8027         estimate D2E/DX2                !
 ! A90   A(47,46,49)           109.7939         estimate D2E/DX2                !
 ! A91   A(48,46,49)           109.8302         estimate D2E/DX2                !
 ! A92   A(46,49,50)           109.8563         estimate D2E/DX2                !
 ! A93   A(46,49,51)           109.8203         estimate D2E/DX2                !
 ! A94   A(46,49,52)           108.2725         estimate D2E/DX2                !
 ! A95   A(50,49,51)           108.1805         estimate D2E/DX2                !
 ! A96   A(50,49,52)           113.9207         estimate D2E/DX2                !
 ! A97   A(51,49,52)           106.7076         estimate D2E/DX2                !
 ! A98   A(49,52,53)           106.4132         estimate D2E/DX2                !
 ! A99   A(49,52,54)           113.6409         estimate D2E/DX2                !
 ! A100  A(49,52,55)           108.2725         estimate D2E/DX2                !
 ! A101  A(53,52,54)           108.8027         estimate D2E/DX2                !
 ! A102  A(53,52,55)           109.7939         estimate D2E/DX2                !
 ! A103  A(54,52,55)           109.8302         estimate D2E/DX2                !
 ! A104  A(52,55,56)           109.8563         estimate D2E/DX2                !
 ! A105  A(52,55,57)           109.8203         estimate D2E/DX2                !
 ! A106  A(52,55,58)           106.792          estimate D2E/DX2                !
 ! A107  A(56,55,57)           108.1805         estimate D2E/DX2                !
 ! A108  A(56,55,58)           111.1017         estimate D2E/DX2                !
 ! A109  A(57,55,58)           111.0883         estimate D2E/DX2                !
 ! A110  A(55,58,59)           113.5269         estimate D2E/DX2                !
 ! A111  A(58,59,60)           110.959          estimate D2E/DX2                !
 ! A112  A(58,59,61)           110.8889         estimate D2E/DX2                !
 ! A113  A(58,59,62)           107.5954         estimate D2E/DX2                !
 ! A114  A(60,59,61)           107.969          estimate D2E/DX2                !
 ! A115  A(60,59,62)           109.7477         estimate D2E/DX2                !
 ! A116  A(61,59,62)           109.6791         estimate D2E/DX2                !
 ! A117  A(59,62,63)           109.672          estimate D2E/DX2                !
 ! A118  A(59,62,64)           109.6905         estimate D2E/DX2                !
 ! A119  A(59,62,65)           107.4561         estimate D2E/DX2                !
 ! A120  A(63,62,64)           107.8154         estimate D2E/DX2                !
 ! A121  A(63,62,65)           111.084          estimate D2E/DX2                !
 ! A122  A(64,62,65)           111.1206         estimate D2E/DX2                !
 ! A123  A(62,65,66)           113.4422         estimate D2E/DX2                !
 ! A124  A(65,66,67)           110.9624         estimate D2E/DX2                !
 ! A125  A(65,66,68)           110.9699         estimate D2E/DX2                !
 ! A126  A(65,66,69)           107.5938         estimate D2E/DX2                !
 ! A127  A(67,66,68)           107.8703         estimate D2E/DX2                !
 ! A128  A(67,66,69)           109.7168         estimate D2E/DX2                !
 ! A129  A(68,66,69)           109.7269         estimate D2E/DX2                !
 ! A130  A(66,69,70)           109.609          estimate D2E/DX2                !
 ! A131  A(66,69,71)           109.6298         estimate D2E/DX2                !
 ! A132  A(66,69,72)           107.5018         estimate D2E/DX2                !
 ! A133  A(70,69,71)           107.833          estimate D2E/DX2                !
 ! A134  A(70,69,72)           111.1321         estimate D2E/DX2                !
 ! A135  A(71,69,72)           111.1294         estimate D2E/DX2                !
 ! A136  A(69,72,73)           112.9879         estimate D2E/DX2                !
 ! A137  A(72,73,74)           111.6404         estimate D2E/DX2                !
 ! A138  A(72,73,75)           107.2792         estimate D2E/DX2                !
 ! A139  A(72,73,76)           111.5752         estimate D2E/DX2                !
 ! A140  A(74,73,75)           108.9473         estimate D2E/DX2                !
 ! A141  A(74,73,76)           108.3835         estimate D2E/DX2                !
 ! A142  A(75,73,76)           108.9532         estimate D2E/DX2                !
 ! D1    D(5,1,2,3)             -0.0166         estimate D2E/DX2                !
 ! D2    D(5,1,2,6)            179.9495         estimate D2E/DX2                !
 ! D3    D(8,1,2,3)            179.9736         estimate D2E/DX2                !
 ! D4    D(8,1,2,6)             -0.0602         estimate D2E/DX2                !
 ! D5    D(2,1,5,4)              0.0061         estimate D2E/DX2                !
 ! D6    D(8,1,5,4)           -179.9848         estimate D2E/DX2                !
 ! D7    D(2,1,8,9)            180.0            estimate D2E/DX2                !
 ! D8    D(2,1,8,12)             0.0496         estimate D2E/DX2                !
 ! D9    D(5,1,8,9)             -0.0109         estimate D2E/DX2                !
 ! D10   D(5,1,8,12)          -179.9613         estimate D2E/DX2                !
 ! D11   D(1,2,3,4)              0.0217         estimate D2E/DX2                !
 ! D12   D(1,2,3,7)            179.909          estimate D2E/DX2                !
 ! D13   D(6,2,3,4)           -179.9418         estimate D2E/DX2                !
 ! D14   D(6,2,3,7)             -0.0545         estimate D2E/DX2                !
 ! D15   D(1,2,6,15)          -176.0961         estimate D2E/DX2                !
 ! D16   D(3,2,6,15)             3.8657         estimate D2E/DX2                !
 ! D17   D(2,3,4,5)             -0.0164         estimate D2E/DX2                !
 ! D18   D(2,3,4,78)          -179.9687         estimate D2E/DX2                !
 ! D19   D(7,3,4,5)           -179.9047         estimate D2E/DX2                !
 ! D20   D(7,3,4,78)             0.143          estimate D2E/DX2                !
 ! D21   D(3,4,5,1)              0.006          estimate D2E/DX2                !
 ! D22   D(78,4,5,1)           179.9715         estimate D2E/DX2                !
 ! D23   D(2,6,15,16)           57.7889         estimate D2E/DX2                !
 ! D24   D(2,6,15,17)          -62.72           estimate D2E/DX2                !
 ! D25   D(2,6,15,18)          179.2813         estimate D2E/DX2                !
 ! D26   D(1,8,9,10)          -179.9737         estimate D2E/DX2                !
 ! D27   D(1,8,9,13)             0.0119         estimate D2E/DX2                !
 ! D28   D(12,8,9,10)           -0.018          estimate D2E/DX2                !
 ! D29   D(12,8,9,13)          179.9676         estimate D2E/DX2                !
 ! D30   D(1,8,12,11)          179.9983         estimate D2E/DX2                !
 ! D31   D(9,8,12,11)            0.0396         estimate D2E/DX2                !
 ! D32   D(8,9,10,11)           -0.0216         estimate D2E/DX2                !
 ! D33   D(8,9,10,14)         -179.9735         estimate D2E/DX2                !
 ! D34   D(13,9,10,11)         179.9939         estimate D2E/DX2                !
 ! D35   D(13,9,10,14)           0.042          estimate D2E/DX2                !
 ! D36   D(8,9,13,46)         -179.1299         estimate D2E/DX2                !
 ! D37   D(10,9,13,46)           0.8539         estimate D2E/DX2                !
 ! D38   D(9,10,11,12)           0.0522         estimate D2E/DX2                !
 ! D39   D(9,10,11,77)         179.9913         estimate D2E/DX2                !
 ! D40   D(14,10,11,12)       -179.9953         estimate D2E/DX2                !
 ! D41   D(14,10,11,77)         -0.0562         estimate D2E/DX2                !
 ! D42   D(10,11,12,8)          -0.0534         estimate D2E/DX2                !
 ! D43   D(77,11,12,8)         179.9968         estimate D2E/DX2                !
 ! D44   D(9,13,46,47)          59.1156         estimate D2E/DX2                !
 ! D45   D(9,13,46,48)         -60.258          estimate D2E/DX2                !
 ! D46   D(9,13,46,49)         179.7972         estimate D2E/DX2                !
 ! D47   D(6,15,18,19)         -62.9499         estimate D2E/DX2                !
 ! D48   D(6,15,18,20)          55.7397         estimate D2E/DX2                !
 ! D49   D(6,15,18,21)         174.2418         estimate D2E/DX2                !
 ! D50   D(16,15,18,19)         60.9447         estimate D2E/DX2                !
 ! D51   D(16,15,18,20)        179.6343         estimate D2E/DX2                !
 ! D52   D(16,15,18,21)        -61.8636         estimate D2E/DX2                !
 ! D53   D(17,15,18,19)       -179.5731         estimate D2E/DX2                !
 ! D54   D(17,15,18,20)        -60.8835         estimate D2E/DX2                !
 ! D55   D(17,15,18,21)         57.6186         estimate D2E/DX2                !
 ! D56   D(15,18,21,22)         61.5131         estimate D2E/DX2                !
 ! D57   D(15,18,21,23)        -59.6179         estimate D2E/DX2                !
 ! D58   D(15,18,21,24)        180.0            estimate D2E/DX2                !
 ! D59   D(19,18,21,22)        -59.1438         estimate D2E/DX2                !
 ! D60   D(19,18,21,23)        179.7251         estimate D2E/DX2                !
 ! D61   D(19,18,21,24)         59.3431         estimate D2E/DX2                !
 ! D62   D(20,18,21,22)       -179.8143         estimate D2E/DX2                !
 ! D63   D(20,18,21,23)         59.0547         estimate D2E/DX2                !
 ! D64   D(20,18,21,24)        -61.3273         estimate D2E/DX2                !
 ! D65   D(18,21,24,25)        -57.1917         estimate D2E/DX2                !
 ! D66   D(18,21,24,26)         61.4979         estimate D2E/DX2                !
 ! D67   D(18,21,24,27)       -177.8426         estimate D2E/DX2                !
 ! D68   D(22,21,24,25)         60.9447         estimate D2E/DX2                !
 ! D69   D(22,21,24,26)        179.6343         estimate D2E/DX2                !
 ! D70   D(22,21,24,27)        -59.7062         estimate D2E/DX2                !
 ! D71   D(23,21,24,25)       -179.5731         estimate D2E/DX2                !
 ! D72   D(23,21,24,26)        -60.8835         estimate D2E/DX2                !
 ! D73   D(23,21,24,27)         59.776          estimate D2E/DX2                !
 ! D74   D(21,24,27,28)        179.9692         estimate D2E/DX2                !
 ! D75   D(25,24,27,28)         60.1218         estimate D2E/DX2                !
 ! D76   D(26,24,27,28)        -60.1597         estimate D2E/DX2                !
 ! D77   D(24,27,28,29)        -60.0154         estimate D2E/DX2                !
 ! D78   D(24,27,28,30)         60.0288         estimate D2E/DX2                !
 ! D79   D(24,27,28,31)        179.9902         estimate D2E/DX2                !
 ! D80   D(27,28,31,32)         59.1092         estimate D2E/DX2                !
 ! D81   D(27,28,31,33)        -59.0956         estimate D2E/DX2                !
 ! D82   D(27,28,31,34)       -179.9997         estimate D2E/DX2                !
 ! D83   D(29,28,31,32)        -61.6612         estimate D2E/DX2                !
 ! D84   D(29,28,31,33)       -179.8661         estimate D2E/DX2                !
 ! D85   D(29,28,31,34)         59.2298         estimate D2E/DX2                !
 ! D86   D(30,28,31,32)        179.842          estimate D2E/DX2                !
 ! D87   D(30,28,31,33)         61.6371         estimate D2E/DX2                !
 ! D88   D(30,28,31,34)        -59.267          estimate D2E/DX2                !
 ! D89   D(28,31,34,35)       -179.9459         estimate D2E/DX2                !
 ! D90   D(32,31,34,35)        -60.0156         estimate D2E/DX2                !
 ! D91   D(33,31,34,35)         60.0024         estimate D2E/DX2                !
 ! D92   D(31,34,35,36)         59.9557         estimate D2E/DX2                !
 ! D93   D(31,34,35,37)        -60.0196         estimate D2E/DX2                !
 ! D94   D(31,34,35,38)        179.9863         estimate D2E/DX2                !
 ! D95   D(34,35,38,39)         59.0529         estimate D2E/DX2                !
 ! D96   D(34,35,38,40)        -59.0761         estimate D2E/DX2                !
 ! D97   D(34,35,38,41)        179.9573         estimate D2E/DX2                !
 ! D98   D(36,35,38,39)        179.894          estimate D2E/DX2                !
 ! D99   D(36,35,38,40)         61.765          estimate D2E/DX2                !
 ! D100  D(36,35,38,41)        -59.2016         estimate D2E/DX2                !
 ! D101  D(37,35,38,39)        -61.7367         estimate D2E/DX2                !
 ! D102  D(37,35,38,40)       -179.8657         estimate D2E/DX2                !
 ! D103  D(37,35,38,41)         59.1677         estimate D2E/DX2                !
 ! D104  D(35,38,41,42)       -179.991          estimate D2E/DX2                !
 ! D105  D(39,38,41,42)        -59.9983         estimate D2E/DX2                !
 ! D106  D(40,38,41,42)         59.9835         estimate D2E/DX2                !
 ! D107  D(38,41,42,43)         60.7568         estimate D2E/DX2                !
 ! D108  D(38,41,42,44)        179.9753         estimate D2E/DX2                !
 ! D109  D(38,41,42,45)        -60.7447         estimate D2E/DX2                !
 ! D110  D(13,46,49,50)        -60.2068         estimate D2E/DX2                !
 ! D111  D(13,46,49,51)         58.6606         estimate D2E/DX2                !
 ! D112  D(13,46,49,52)        174.8171         estimate D2E/DX2                !
 ! D113  D(47,46,49,50)         60.7669         estimate D2E/DX2                !
 ! D114  D(47,46,49,51)        179.6343         estimate D2E/DX2                !
 ! D115  D(47,46,49,52)        -64.2092         estimate D2E/DX2                !
 ! D116  D(48,46,49,50)       -179.6339         estimate D2E/DX2                !
 ! D117  D(48,46,49,51)        -60.7665         estimate D2E/DX2                !
 ! D118  D(48,46,49,52)         55.39           estimate D2E/DX2                !
 ! D119  D(46,49,52,53)         62.0285         estimate D2E/DX2                !
 ! D120  D(46,49,52,54)        -57.6893         estimate D2E/DX2                !
 ! D121  D(46,49,52,55)        180.0            estimate D2E/DX2                !
 ! D122  D(50,49,52,53)        -60.5035         estimate D2E/DX2                !
 ! D123  D(50,49,52,54)        179.7787         estimate D2E/DX2                !
 ! D124  D(50,49,52,55)         57.468          estimate D2E/DX2                !
 ! D125  D(51,49,52,53)       -179.8122         estimate D2E/DX2                !
 ! D126  D(51,49,52,54)         60.47           estimate D2E/DX2                !
 ! D127  D(51,49,52,55)        -61.8408         estimate D2E/DX2                !
 ! D128  D(49,52,55,56)        -55.0239         estimate D2E/DX2                !
 ! D129  D(49,52,55,57)         63.8435         estimate D2E/DX2                !
 ! D130  D(49,52,55,58)       -175.6084         estimate D2E/DX2                !
 ! D131  D(53,52,55,56)         60.7669         estimate D2E/DX2                !
 ! D132  D(53,52,55,57)        179.6343         estimate D2E/DX2                !
 ! D133  D(53,52,55,58)        -59.8176         estimate D2E/DX2                !
 ! D134  D(54,52,55,56)       -179.6339         estimate D2E/DX2                !
 ! D135  D(54,52,55,57)        -60.7665         estimate D2E/DX2                !
 ! D136  D(54,52,55,58)         59.7816         estimate D2E/DX2                !
 ! D137  D(52,55,58,59)        179.9866         estimate D2E/DX2                !
 ! D138  D(56,55,58,59)         60.2017         estimate D2E/DX2                !
 ! D139  D(57,55,58,59)        -60.2798         estimate D2E/DX2                !
 ! D140  D(55,58,59,60)        -59.9554         estimate D2E/DX2                !
 ! D141  D(55,58,59,61)         60.0303         estimate D2E/DX2                !
 ! D142  D(55,58,59,62)        179.975          estimate D2E/DX2                !
 ! D143  D(58,59,62,63)         59.1856         estimate D2E/DX2                !
 ! D144  D(58,59,62,64)        -59.0457         estimate D2E/DX2                !
 ! D145  D(58,59,62,65)       -179.9576         estimate D2E/DX2                !
 ! D146  D(60,59,62,63)        -61.6483         estimate D2E/DX2                !
 ! D147  D(60,59,62,64)       -179.8796         estimate D2E/DX2                !
 ! D148  D(60,59,62,65)         59.2085         estimate D2E/DX2                !
 ! D149  D(61,59,62,63)        179.8946         estimate D2E/DX2                !
 ! D150  D(61,59,62,64)         61.6633         estimate D2E/DX2                !
 ! D151  D(61,59,62,65)        -59.2485         estimate D2E/DX2                !
 ! D152  D(59,62,65,66)       -179.9262         estimate D2E/DX2                !
 ! D153  D(63,62,65,66)        -59.963          estimate D2E/DX2                !
 ! D154  D(64,62,65,66)         60.0666         estimate D2E/DX2                !
 ! D155  D(62,65,66,67)         59.9318         estimate D2E/DX2                !
 ! D156  D(62,65,66,68)        -59.9858         estimate D2E/DX2                !
 ! D157  D(62,65,66,69)        179.9646         estimate D2E/DX2                !
 ! D158  D(65,66,69,70)         59.0517         estimate D2E/DX2                !
 ! D159  D(65,66,69,71)        -59.1272         estimate D2E/DX2                !
 ! D160  D(65,66,69,72)        179.9578         estimate D2E/DX2                !
 ! D161  D(67,66,69,70)        179.8707         estimate D2E/DX2                !
 ! D162  D(67,66,69,71)         61.6918         estimate D2E/DX2                !
 ! D163  D(67,66,69,72)        -59.2231         estimate D2E/DX2                !
 ! D164  D(68,66,69,70)        -61.7824         estimate D2E/DX2                !
 ! D165  D(68,66,69,71)       -179.9613         estimate D2E/DX2                !
 ! D166  D(68,66,69,72)         59.1237         estimate D2E/DX2                !
 ! D167  D(66,69,72,73)       -179.9695         estimate D2E/DX2                !
 ! D168  D(70,69,72,73)        -60.0264         estimate D2E/DX2                !
 ! D169  D(71,69,72,73)         60.0635         estimate D2E/DX2                !
 ! D170  D(69,72,73,74)         60.7339         estimate D2E/DX2                !
 ! D171  D(69,72,73,75)       -179.9753         estimate D2E/DX2                !
 ! D172  D(69,72,73,76)        -60.7149         estimate D2E/DX2                !
 --------------------------------------------------------------------------------
 Trust Radius=3.00D-01 FncErr=1.00D-07 GrdErr=1.00D-06 EigMax=2.50D+02 EigMin=1.00D-04
 Number of steps in this run=    403 maximum allowed number of steps=    468.
 GradGradGradGradGradGradGradGradGradGradGradGradGradGradGradGradGradGrad

 Leave Link  103 at Tue Mar 31 07:59:50 2020, MaxMem=  6710886400 cpu:               0.2 elap:               0.0
 (Enter /apps/gaussian/g16-a03/l202.exe)
 Stoichiometry    C26H42O8S2
 Framework group  C1[X(C26H42O8S2)]
 Deg. of freedom   228
 Full point group                 C1      NOp   1
 Largest Abelian subgroup         C1      NOp   1
 Largest concise Abelian subgroup C1      NOp   1
                         Standard orientation:                         
 ---------------------------------------------------------------------
 Center     Atomic      Atomic             Coordinates (Angstroms)
 Number     Number       Type             X           Y           Z
 ---------------------------------------------------------------------
      1          6           0        0.109223   -0.654122   -0.012076
      2          6           0        1.340657   -1.289224   -0.005587
      3          6           0        1.265947   -2.710796   -0.003248
      4          6           0       -0.021664   -3.157626   -0.008433
      5         16           0       -1.166552   -1.864489   -0.015785
      6          8           0        2.482727   -0.543651   -0.002767
      7          1           0        2.124777   -3.365558    0.000259
      8          6           0       -0.163232    0.765163   -0.015383
      9          6           0       -1.394666    1.400264   -0.021873
     10          6           0       -1.320955    2.821861   -0.024215
     11          6           0       -0.032344    3.268666   -0.019027
     12         16           0        1.112572    1.976526   -0.012678
     13          8           0       -2.536732    0.654689   -0.025693
     14          1           0       -2.178732    3.478595   -0.028724
     15          6           0        3.707520   -1.213860   -0.080184
     16          1           0        3.808217   -1.847372   -0.968882
     17          1           0        3.800168   -1.843596    0.812099
     18          6           0        4.793463   -0.153775   -0.076528
     19          1           0        4.696986    0.483066   -0.966845
     20          1           0        4.688920    0.485832    0.811140
     21          6           0        6.327944   -1.022355   -0.004440
     22          1           0        6.428641   -1.655867   -0.893138
     23          1           0        6.420592   -1.652092    0.887843
     24          6           0        7.413887    0.037730   -0.000784
     25          1           0        7.317411    0.674571   -0.891100
     26          1           0        7.309345    0.677336    0.886884
     27          8           0        8.653113   -0.645582    0.005882
     28          6           0        9.775175    0.219532    0.009264
     29          1           0        9.776918    0.863910   -0.880801
     30          1           0        9.768852    0.866676    0.897183
     31          6           0       11.021802   -0.647022    0.016536
     32          1           0       11.025076   -1.296090   -0.871385
     33          1           0       11.019012   -1.293378    0.905605
     34          8           0       12.140840    0.217168    0.019913
     35          6           0       13.381093   -0.465173    0.025578
     36          1           0       13.481609   -1.105676   -0.861098
     37          1           0       13.474546   -1.102938    0.915889
     38          6           0       14.480683    0.580562    0.028319
     39          1           0       14.378216    1.223118    0.915983
     40          1           0       14.385282    1.220377   -0.862005
     41          8           0       15.717910   -0.102700    0.034978
     42          6           0       16.829151    0.769689    0.038306
     43          1           0       16.835766    1.414517    0.929270
     44          1           0       17.726867    0.149968    0.043810
     45          1           0       16.843848    1.411732   -0.854715
     46          6           0       -3.827893    1.299233   -0.051380
     47          1           0       -3.920566    1.927970   -0.943661
     48          1           0       -3.928640    1.930745    0.837324
     49          6           0       -4.913861    0.238148   -0.055034
     50          1           0       -4.809268   -0.399459   -0.942708
     51          1           0       -4.817337   -0.396690    0.836277
     52          6           0       -6.269010    0.938723    0.048921
     53          1           0       -6.361683    1.567459   -0.843359
     54          1           0       -6.369757    1.570235    0.937625
     55          6           0       -7.354978   -0.122362    0.045268
     56          1           0       -7.250385   -0.759969   -0.842406
     57          1           0       -7.258454   -0.757200    0.936578
     58          8           0       -8.594204    0.560950    0.038602
     59          6           0       -9.716238   -0.303168    0.034217
     60          1           0       -9.709940   -0.951312   -0.853699
     61          1           0       -9.717981   -0.947546    0.924283
     62          6           0      -10.962868    0.563390    0.027945
     63          1           0      -10.960075    1.209742   -0.862124
     64          1           0      -10.967138    1.212480    0.914864
     65          8           0      -12.081956   -0.302800    0.024575
     66          6           0      -13.322204    0.379534    0.016909
     67          1           0      -13.414629    1.018271   -0.874402
     68          1           0      -13.423694    1.021062    0.903580
     69          6           0      -14.421816   -0.667203    0.013172
     70          1           0      -14.326389   -1.306019    0.903492
     71          1           0      -14.318323   -1.308784   -0.874493
     72          8           0      -15.659043    0.016059    0.006512
     73          6           0      -16.770259   -0.855330    0.003181
     74          1           0      -16.784956   -1.497373    0.896202
     75          1           0      -17.667975   -0.235609   -0.002322
     76          1           0      -16.775873   -1.500183   -0.887779
     77          1           0        0.393208    4.281306   -0.019073
     78          1           0       -0.587377   -4.214761   -0.008638
 ---------------------------------------------------------------------
 Rotational constants (GHZ):           0.5066705           0.0113581           0.0111234
 Leave Link  202 at Tue Mar 31 07:59:50 2020, MaxMem=  6710886400 cpu:               0.1 elap:               0.0
 (Enter /apps/gaussian/g16-a03/l301.exe)
 Standard basis: 6-311G(d,p) (5D, 7F)
 Ernie: Thresh=  0.10000D-02 Tol=  0.10000D-05 Strict=F.
 There are   952 symmetry adapted cartesian basis functions of A   symmetry.
 There are   916 symmetry adapted basis functions of A   symmetry.
   916 basis functions,  1516 primitive gaussians,   952 cartesian basis functions
   147 alpha electrons      147 beta electrons
       nuclear repulsion energy      3673.9866668626 Hartrees.
 IExCor=  402 DFT=T Ex+Corr=B3LYP ExCW=0 ScaHFX=  0.200000
 ScaDFX=  0.800000  0.720000  1.000000  0.810000 ScalE2=  1.000000  1.000000
 IRadAn=      5 IRanWt=     -1 IRanGd=            0 ICorTp=0 IEmpDi=  4
 NAtoms=   78 NActive=   78 NUniq=   78 SFac= 1.00D+00 NAtFMM=   60 NAOKFM=T Big=T
 Integral buffers will be    131072 words long.
 Raffenetti 2 integral format.
 Two-electron integral symmetry is turned on.
 Leave Link  301 at Tue Mar 31 07:59:50 2020, MaxMem=  6710886400 cpu:               1.2 elap:               0.2
 (Enter /apps/gaussian/g16-a03/l302.exe)
 NPDir=0 NMtPBC=     1 NCelOv=     1 NCel=       1 NClECP=     1 NCelD=      1
         NCelK=      1 NCelE2=     1 NClLst=     1 CellRange=     0.0.
 One-electron integrals computed using PRISM.
 One-electron integral symmetry used in STVInt
 NBasis=   916 RedAO= T EigKep=  2.87D-04  NBF=   916
 NBsUse=   916 1.00D-06 EigRej= -1.00D+00 NBFU=   916
 Precomputing XC quadrature grid using
 IXCGrd= 4 IRadAn=           5 IRanWt=          -1 IRanGd=           0 AccXCQ= 0.00D+00.
 Generated NRdTot=       0 NPtTot=           0 NUsed=           0 NTot=          32
 NSgBfM=   586   586   586   586   586 MxSgAt=    78 MxSgA2=    77.
 Leave Link  302 at Tue Mar 31 07:59:53 2020, MaxMem=  6710886400 cpu:              19.5 elap:               2.5
 (Enter /apps/gaussian/g16-a03/l303.exe)
 DipDrv:  MaxL=1.
 Leave Link  303 at Tue Mar 31 07:59:54 2020, MaxMem=  6710886400 cpu:               1.6 elap:               0.2
 (Enter /apps/gaussian/g16-a03/l401.exe)
 ExpMin= 7.71D-02 ExpMax= 9.34D+04 ExpMxC= 3.17D+03 IAcc=3 IRadAn=         5 AccDes= 0.00D+00
 Harris functional with IExCor=  402 and IRadAn=       5 diagonalized for initial guess.
 HarFok:  IExCor=  402 AccDes= 0.00D+00 IRadAn=         5 IDoV= 1 UseB2=F ITyADJ=14
 ICtDFT=  3500011 ScaDFX=  1.000000  1.000000  1.000000  1.000000
 FoFCou: FMM=F IPFlag=           0 FMFlag=      100000 FMFlg1=        2001
         NFxFlg=           0 DoJE=T BraDBF=F KetDBF=T FulRan=T
         wScrn=  0.000000 ICntrl=       500 IOpCl=  0 I1Cent=   200000004 NGrid=           0
         NMat0=    1 NMatS0=      1 NMatT0=    0 NMatD0=    1 NMtDS0=    0 NMtDT0=    0
 Petite list used in FoFCou.
 Harris En= -2414.52920841436    
 JPrj=0 DoOrth=F DoCkMO=F.
 Leave Link  401 at Tue Mar 31 08:00:04 2020, MaxMem=  6710886400 cpu:              78.1 elap:               9.8
 (Enter /apps/gaussian/g16-a03/l502.exe)
 Integral symmetry usage will be decided dynamically.
 Closed shell SCF:
 Using DIIS extrapolation, IDIIS=  1040.
 NGot=  6710886400 LenX=  6709056596 LenY=  6708149340
 Requested convergence on RMS density matrix=1.00D-08 within 128 cycles.
 Requested convergence on MAX density matrix=1.00D-06.
 Requested convergence on             energy=1.00D-06.
 No special actions if energy rises.
 Fock matrices will be formed incrementally for  20 cycles.
 Integral accuracy reduced to 1.0D-05 until final iterations.

 Cycle   1  Pass 0  IDiag  1:
 FoFJK:  IHMeth= 1 ICntrl=       0 DoSepK=F KAlg= 0 I1Cent=           0 FoldK=F
 IRaf= 440000000 NMat=       1 IRICut=       1 DoRegI=T DoRafI=F ISym2E= 0 IDoP0=0 IntGTp=1.
 FoFCou: FMM=T IPFlag=           0 FMFlag=      100000 FMFlg1=        2001
         NFxFlg=           0 DoJE=F BraDBF=F KetDBF=F FulRan=T
         wScrn=  0.000000 ICntrl=         0 IOpCl=  0 I1Cent=           0 NGrid=           0
         NMat0=    1 NMatS0=      1 NMatT0=    0 NMatD0=    1 NMtDS0=    0 NMtDT0=    0
 Symmetry not used in FoFCou.
 FMM levels:  10  Number of levels for PrismC:   9
 E= -2413.60304270970    
 DIIS: error= 4.09D-02 at cycle   1 NSaved=   1.
 NSaved= 1 IEnMin= 1 EnMin= -2413.60304270970     IErMin= 1 ErrMin= 4.09D-02
 ErrMax= 4.09D-02  0.00D+00 EMaxC= 1.00D-01 BMatC= 1.07D+00 BMatP= 1.07D+00
 IDIUse=3 WtCom= 5.91D-01 WtEn= 4.09D-01
 Coeff-Com:  0.100D+01
 Coeff-En:   0.100D+01
 Coeff:      0.100D+01
 Gap=     0.089 Goal=   None    Shift=    0.000
 GapD=    0.089 DampG=0.500 DampE=0.500 DampFc=0.2500 IDamp=-1.
 Damping current iteration by 2.50D-01
 RMSDP=2.18D-03 MaxDP=1.35D-01              OVMax= 2.68D-01

 Cycle   2  Pass 0  IDiag  1:
 RMSU=  5.44D-04    CP:  9.94D-01
 E= -2413.94953485146     Delta-E=       -0.346492141757 Rises=F Damp=T
 DIIS: error= 1.89D-02 at cycle   2 NSaved=   2.
 NSaved= 2 IEnMin= 2 EnMin= -2413.94953485146     IErMin= 2 ErrMin= 1.89D-02
 ErrMax= 1.89D-02  0.00D+00 EMaxC= 1.00D-01 BMatC= 2.75D-01 BMatP= 1.07D+00
 IDIUse=3 WtCom= 8.11D-01 WtEn= 1.89D-01
 Coeff-Com: -0.840D+00 0.184D+01
 Coeff-En:   0.000D+00 0.100D+01
 Coeff:     -0.682D+00 0.168D+01
 Gap=     0.212 Goal=   None    Shift=    0.000
 RMSDP=5.39D-04 MaxDP=3.26D-02 DE=-3.46D-01 OVMax= 2.37D-01

 Cycle   3  Pass 0  IDiag  1:
 RMSU=  4.75D-04    CP:  9.91D-01  1.47D+00
 E= -2414.52640820385     Delta-E=       -0.576873352390 Rises=F Damp=F
 DIIS: error= 6.05D-03 at cycle   3 NSaved=   3.
 NSaved= 3 IEnMin= 3 EnMin= -2414.52640820385     IErMin= 3 ErrMin= 6.05D-03
 ErrMax= 6.05D-03  0.00D+00 EMaxC= 1.00D-01 BMatC= 2.02D-02 BMatP= 2.75D-01
 IDIUse=3 WtCom= 9.40D-01 WtEn= 6.05D-02
 Coeff-Com: -0.261D+00 0.576D+00 0.686D+00
 Coeff-En:   0.000D+00 0.000D+00 0.100D+01
 Coeff:     -0.246D+00 0.541D+00 0.705D+00
 Gap=     0.143 Goal=   None    Shift=    0.000
 RMSDP=2.59D-04 MaxDP=3.02D-02 DE=-5.77D-01 OVMax= 6.22D-02

 Cycle   4  Pass 0  IDiag  1:
 RMSU=  1.61D-04    CP:  9.91D-01  1.55D+00  5.83D-01
 E= -2414.53576500611     Delta-E=       -0.009356802261 Rises=F Damp=F
 DIIS: error= 4.90D-03 at cycle   4 NSaved=   4.
 NSaved= 4 IEnMin= 4 EnMin= -2414.53576500611     IErMin= 4 ErrMin= 4.90D-03
 ErrMax= 4.90D-03  0.00D+00 EMaxC= 1.00D-01 BMatC= 1.10D-02 BMatP= 2.02D-02
 IDIUse=3 WtCom= 9.51D-01 WtEn= 4.90D-02
 Coeff-Com: -0.477D-01 0.112D+00 0.423D+00 0.513D+00
 Coeff-En:   0.000D+00 0.000D+00 0.360D+00 0.640D+00
 Coeff:     -0.453D-01 0.106D+00 0.420D+00 0.519D+00
 Gap=     0.145 Goal=   None    Shift=    0.000
 RMSDP=1.00D-04 MaxDP=8.30D-03 DE=-9.36D-03 OVMax= 2.33D-02

 Cycle   5  Pass 0  IDiag  1:
 RMSU=  5.22D-05    CP:  9.90D-01  1.52D+00  7.04D-01  6.21D-01
 E= -2414.54583073744     Delta-E=       -0.010065731329 Rises=F Damp=F
 DIIS: error= 1.18D-03 at cycle   5 NSaved=   5.
 NSaved= 5 IEnMin= 5 EnMin= -2414.54583073744     IErMin= 5 ErrMin= 1.18D-03
 ErrMax= 1.18D-03  0.00D+00 EMaxC= 1.00D-01 BMatC= 4.42D-04 BMatP= 1.10D-02
 IDIUse=3 WtCom= 9.88D-01 WtEn= 1.18D-02
 Coeff-Com: -0.243D-02 0.120D-01 0.165D+00 0.252D+00 0.574D+00
 Coeff-En:   0.000D+00 0.000D+00 0.000D+00 0.000D+00 0.100D+01
 Coeff:     -0.240D-02 0.118D-01 0.163D+00 0.249D+00 0.579D+00
 Gap=     0.145 Goal=   None    Shift=    0.000
 RMSDP=2.57D-05 MaxDP=2.89D-03 DE=-1.01D-02 OVMax= 7.51D-03

 Cycle   6  Pass 0  IDiag  1:
 RMSU=  1.69D-05    CP:  9.90D-01  1.52D+00  7.15D-01  6.49D-01  6.53D-01
 E= -2414.54615802754     Delta-E=       -0.000327290107 Rises=F Damp=F
 DIIS: error= 7.50D-04 at cycle   6 NSaved=   6.
 NSaved= 6 IEnMin= 6 EnMin= -2414.54615802754     IErMin= 6 ErrMin= 7.50D-04
 ErrMax= 7.50D-04  0.00D+00 EMaxC= 1.00D-01 BMatC= 8.54D-05 BMatP= 4.42D-04
 IDIUse=3 WtCom= 9.92D-01 WtEn= 7.50D-03
 Coeff-Com:  0.502D-02-0.716D-02 0.496D-01 0.878D-01 0.345D+00 0.520D+00
 Coeff-En:   0.000D+00 0.000D+00 0.000D+00 0.000D+00 0.168D+00 0.832D+00
 Coeff:      0.499D-02-0.710D-02 0.492D-01 0.871D-01 0.344D+00 0.522D+00
 Gap=     0.146 Goal=   None    Shift=    0.000
 RMSDP=1.14D-05 MaxDP=1.11D-03 DE=-3.27D-04 OVMax= 3.84D-03

 Cycle   7  Pass 0  IDiag  1:
 RMSU=  5.79D-06    CP:  9.91D-01  1.51D+00  7.19D-01  6.41D-01  7.01D-01
                    CP:  4.83D-01
 E= -2414.54623547048     Delta-E=       -0.000077442940 Rises=F Damp=F
 DIIS: error= 3.02D-04 at cycle   7 NSaved=   7.
 NSaved= 7 IEnMin= 7 EnMin= -2414.54623547048     IErMin= 7 ErrMin= 3.02D-04
 ErrMax= 3.02D-04  0.00D+00 EMaxC= 1.00D-01 BMatC= 9.37D-06 BMatP= 8.54D-05
 IDIUse=3 WtCom= 9.97D-01 WtEn= 3.02D-03
 Coeff-Com:  0.363D-02-0.564D-02 0.226D-01 0.413D-01 0.185D+00 0.333D+00
 Coeff-Com:  0.421D+00
 Coeff-En:   0.000D+00 0.000D+00 0.000D+00 0.000D+00 0.000D+00 0.290D-01
 Coeff-En:   0.971D+00
 Coeff:      0.362D-02-0.562D-02 0.225D-01 0.412D-01 0.184D+00 0.332D+00
 Coeff:      0.423D+00
 Gap=     0.146 Goal=   None    Shift=    0.000
 RMSDP=4.21D-06 MaxDP=3.09D-04 DE=-7.74D-05 OVMax= 1.32D-03

 Initial convergence to 1.0D-05 achieved.  Increase integral accuracy.
 Cycle   8  Pass 1  IDiag  1:
 E= -2414.54618926225     Delta-E=        0.000046208230 Rises=F Damp=F
 DIIS: error= 7.90D-05 at cycle   1 NSaved=   1.
 NSaved= 1 IEnMin= 1 EnMin= -2414.54618926225     IErMin= 1 ErrMin= 7.90D-05
 ErrMax= 7.90D-05  0.00D+00 EMaxC= 1.00D-01 BMatC= 2.50D-06 BMatP= 2.50D-06
 IDIUse=1 WtCom= 1.00D+00 WtEn= 0.00D+00
 Coeff-Com:  0.100D+01
 Coeff:      0.100D+01
 Gap=     0.146 Goal=   None    Shift=    0.000
 RMSDP=4.21D-06 MaxDP=3.09D-04 DE= 4.62D-05 OVMax= 1.17D-03

 Cycle   9  Pass 1  IDiag  1:
 RMSU=  1.91D-05    CP:  1.00D+00
 E= -2414.54618701677     Delta-E=        0.000002245488 Rises=F Damp=F
 DIIS: error= 2.07D-04 at cycle   2 NSaved=   2.
 NSaved= 2 IEnMin= 1 EnMin= -2414.54618926225     IErMin= 1 ErrMin= 7.90D-05
 ErrMax= 2.07D-04  0.00D+00 EMaxC= 1.00D-01 BMatC= 4.68D-06 BMatP= 2.50D-06
 IDIUse=3 WtCom= 4.10D-01 WtEn= 5.90D-01
 Coeff-Com:  0.598D+00 0.402D+00
 Coeff-En:   0.661D+00 0.339D+00
 Coeff:      0.635D+00 0.365D+00
 Gap=     0.146 Goal=   None    Shift=    0.000
 RMSDP=2.97D-06 MaxDP=2.49D-04 DE= 2.25D-06 OVMax= 1.01D-03

 Cycle  10  Pass 1  IDiag  1:
 RMSU=  2.95D-06    CP:  1.00D+00  9.81D-01
 E= -2414.54619159582     Delta-E=       -0.000004579053 Rises=F Damp=F
 DIIS: error= 5.97D-05 at cycle   3 NSaved=   3.
 NSaved= 3 IEnMin= 3 EnMin= -2414.54619159582     IErMin= 3 ErrMin= 5.97D-05
 ErrMax= 5.97D-05  0.00D+00 EMaxC= 1.00D-01 BMatC= 2.95D-07 BMatP= 2.50D-06
 IDIUse=1 WtCom= 1.00D+00 WtEn= 0.00D+00
 Coeff-Com:  0.385D-01 0.198D+00 0.764D+00
 Coeff:      0.385D-01 0.198D+00 0.764D+00
 Gap=     0.146 Goal=   None    Shift=    0.000
 RMSDP=7.71D-07 MaxDP=6.01D-05 DE=-4.58D-06 OVMax= 2.73D-04

 Cycle  11  Pass 1  IDiag  1:
 RMSU=  3.64D-07    CP:  1.00D+00  9.93D-01  7.84D-01
 E= -2414.54619185271     Delta-E=       -0.000000256890 Rises=F Damp=F
 DIIS: error= 1.81D-05 at cycle   4 NSaved=   4.
 NSaved= 4 IEnMin= 4 EnMin= -2414.54619185271     IErMin= 4 ErrMin= 1.81D-05
 ErrMax= 1.81D-05  0.00D+00 EMaxC= 1.00D-01 BMatC= 7.13D-08 BMatP= 2.95D-07
 IDIUse=1 WtCom= 1.00D+00 WtEn= 0.00D+00
 Coeff-Com: -0.284D-02 0.106D+00 0.486D+00 0.411D+00
 Coeff:     -0.284D-02 0.106D+00 0.486D+00 0.411D+00
 Gap=     0.146 Goal=   None    Shift=    0.000
 RMSDP=2.33D-07 MaxDP=2.73D-05 DE=-2.57D-07 OVMax= 6.30D-05

 Cycle  12  Pass 1  IDiag  1:
 RMSU=  9.19D-08    CP:  1.00D+00  9.94D-01  8.09D-01  4.49D-01
 E= -2414.54619191810     Delta-E=       -0.000000065394 Rises=F Damp=F
 DIIS: error= 1.05D-06 at cycle   5 NSaved=   5.
 NSaved= 5 IEnMin= 5 EnMin= -2414.54619191810     IErMin= 5 ErrMin= 1.05D-06
 ErrMax= 1.05D-06  0.00D+00 EMaxC= 1.00D-01 BMatC= 5.71D-10 BMatP= 7.13D-08
 IDIUse=1 WtCom= 1.00D+00 WtEn= 0.00D+00
 Coeff-Com: -0.225D-02 0.451D-01 0.213D+00 0.190D+00 0.554D+00
 Coeff:     -0.225D-02 0.451D-01 0.213D+00 0.190D+00 0.554D+00
 Gap=     0.146 Goal=   None    Shift=    0.000
 RMSDP=2.97D-08 MaxDP=2.76D-06 DE=-6.54D-08 OVMax= 7.39D-06

 Cycle  13  Pass 1  IDiag  1:
 RMSU=  2.58D-08    CP:  1.00D+00  9.94D-01  8.09D-01  4.56D-01  8.45D-01
 E= -2414.54619191854     Delta-E=       -0.000000000441 Rises=F Damp=F
 DIIS: error= 4.99D-07 at cycle   6 NSaved=   6.
 NSaved= 6 IEnMin= 6 EnMin= -2414.54619191854     IErMin= 6 ErrMin= 4.99D-07
 ErrMax= 4.99D-07  0.00D+00 EMaxC= 1.00D-01 BMatC= 8.03D-11 BMatP= 5.71D-10
 IDIUse=1 WtCom= 1.00D+00 WtEn= 0.00D+00
 Coeff-Com: -0.103D-02 0.170D-01 0.827D-01 0.733D-01 0.312D+00 0.516D+00
 Coeff:     -0.103D-02 0.170D-01 0.827D-01 0.733D-01 0.312D+00 0.516D+00
 Gap=     0.146 Goal=   None    Shift=    0.000
 RMSDP=1.25D-08 MaxDP=1.52D-06 DE=-4.41D-10 OVMax= 4.42D-06

 Cycle  14  Pass 1  IDiag  1:
 RMSU=  1.04D-08    CP:  1.00D+00  9.94D-01  8.10D-01  4.54D-01  8.36D-01
                    CP:  7.55D-01
 E= -2414.54619191862     Delta-E=       -0.000000000072 Rises=F Damp=F
 DIIS: error= 1.71D-07 at cycle   7 NSaved=   7.
 NSaved= 7 IEnMin= 7 EnMin= -2414.54619191862     IErMin= 7 ErrMin= 1.71D-07
 ErrMax= 1.71D-07  0.00D+00 EMaxC= 1.00D-01 BMatC= 7.72D-12 BMatP= 8.03D-11
 IDIUse=1 WtCom= 1.00D+00 WtEn= 0.00D+00
 Coeff-Com: -0.940D-04 0.104D-03 0.249D-02 0.953D-03 0.540D-01 0.257D+00
 Coeff-Com:  0.686D+00
 Coeff:     -0.940D-04 0.104D-03 0.249D-02 0.953D-03 0.540D-01 0.257D+00
 Coeff:      0.686D+00
 Gap=     0.146 Goal=   None    Shift=    0.000
 RMSDP=4.68D-09 MaxDP=6.04D-07 DE=-7.19D-11 OVMax= 1.32D-06

 SCF Done:  E(RB3LYP) =  -2414.54619192     A.U. after   14 cycles
            NFock= 14  Conv=0.47D-08     -V/T= 2.0031
 KE= 2.407008379853D+03 PE=-1.302101964198D+04 EE= 4.525478403350D+03
 Leave Link  502 at Tue Mar 31 08:03:42 2020, MaxMem=  6710886400 cpu:            1713.6 elap:             216.5
 (Enter /apps/gaussian/g16-a03/l601.exe)
 Copying SCF densities to generalized density rwf, IOpCl= 0 IROHF=0.

 **********************************************************************

            Population analysis using the SCF density.

 **********************************************************************

 Orbital symmetries:
       Occupied  (A) (A) (A) (A) (A) (A) (A) (A) (A) (A) (A) (A)
                 (A) (A) (A) (A) (A) (A) (A) (A) (A) (A) (A) (A)
                 (A) (A) (A) (A) (A) (A) (A) (A) (A) (A) (A) (A)
                 (A) (A) (A) (A) (A) (A) (A) (A) (A) (A) (A) (A)
                 (A) (A) (A) (A) (A) (A) (A) (A) (A) (A) (A) (A)
                 (A) (A) (A) (A) (A) (A) (A) (A) (A) (A) (A) (A)
                 (A) (A) (A) (A) (A) (A) (A) (A) (A) (A) (A) (A)
                 (A) (A) (A) (A) (A) (A) (A) (A) (A) (A) (A) (A)
                 (A) (A) (A) (A) (A) (A) (A) (A) (A) (A) (A) (A)
                 (A) (A) (A) (A) (A) (A) (A) (A) (A) (A) (A) (A)
                 (A) (A) (A) (A) (A) (A) (A) (A) (A) (A) (A) (A)
                 (A) (A) (A) (A) (A) (A) (A) (A) (A) (A) (A) (A)
                 (A) (A) (A)
       Virtual   (A) (A) (A) (A) (A) (A) (A) (A) (A) (A) (A) (A)
                 (A) (A) (A) (A) (A) (A) (A) (A) (A) (A) (A) (A)
                 (A) (A) (A) (A) (A) (A) (A) (A) (A) (A) (A) (A)
                 (A) (A) (A) (A) (A) (A) (A) (A) (A) (A) (A) (A)
                 (A) (A) (A) (A) (A) (A) (A) (A) (A) (A) (A) (A)
                 (A) (A) (A) (A) (A) (A) (A) (A) (A) (A) (A) (A)
                 (A) (A) (A) (A) (A) (A) (A) (A) (A) (A) (A) (A)
                 (A) (A) (A) (A) (A) (A) (A) (A) (A) (A) (A) (A)
                 (A) (A) (A) (A) (A) (A) (A) (A) (A) (A) (A) (A)
                 (A) (A) (A) (A) (A) (A) (A) (A) (A) (A) (A) (A)
                 (A) (A) (A) (A) (A) (A) (A) (A) (A) (A) (A) (A)
                 (A) (A) (A) (A) (A) (A) (A) (A) (A) (A) (A) (A)
                 (A) (A) (A) (A) (A) (A) (A) (A) (A) (A) (A) (A)
                 (A) (A) (A) (A) (A) (A) (A) (A) (A) (A) (A) (A)
                 (A) (A) (A) (A) (A) (A) (A) (A) (A) (A) (A) (A)
                 (A) (A) (A) (A) (A) (A) (A) (A) (A) (A) (A) (A)
                 (A) (A) (A) (A) (A) (A) (A) (A) (A) (A) (A) (A)
                 (A) (A) (A) (A) (A) (A) (A) (A) (A) (A) (A) (A)
                 (A) (A) (A) (A) (A) (A) (A) (A) (A) (A) (A) (A)
                 (A) (A) (A) (A) (A) (A) (A) (A) (A) (A) (A) (A)
                 (A) (A) (A) (A) (A) (A) (A) (A) (A) (A) (A) (A)
                 (A) (A) (A) (A) (A) (A) (A) (A) (A) (A) (A) (A)
                 (A) (A) (A) (A) (A) (A) (A) (A) (A) (A) (A) (A)
                 (A) (A) (A) (A) (A) (A) (A) (A) (A) (A) (A) (A)
                 (A) (A) (A) (A) (A) (A) (A) (A) (A) (A) (A) (A)
                 (A) (A) (A) (A) (A) (A) (A) (A) (A) (A) (A) (A)
                 (A) (A) (A) (A) (A) (A) (A) (A) (A) (A) (A) (A)
                 (A) (A) (A) (A) (A) (A) (A) (A) (A) (A) (A) (A)
                 (A) (A) (A) (A) (A) (A) (A) (A) (A) (A) (A) (A)
                 (A) (A) (A) (A) (A) (A) (A) (A) (A) (A) (A) (A)
                 (A) (A) (A) (A) (A) (A) (A) (A) (A) (A) (A) (A)
                 (A) (A) (A) (A) (A) (A) (A) (A) (A) (A) (A) (A)
                 (A) (A) (A) (A) (A) (A) (A) (A) (A) (A) (A) (A)
                 (A) (A) (A) (A) (A) (A) (A) (A) (A) (A) (A) (A)
                 (A) (A) (A) (A) (A) (A) (A) (A) (A) (A) (A) (A)
                 (A) (A) (A) (A) (A) (A) (A) (A) (A) (A) (A) (A)
                 (A) (A) (A) (A) (A) (A) (A) (A) (A) (A) (A) (A)
                 (A) (A) (A) (A) (A) (A) (A) (A) (A) (A) (A) (A)
                 (A) (A) (A) (A) (A) (A) (A) (A) (A) (A) (A) (A)
                 (A) (A) (A) (A) (A) (A) (A) (A) (A) (A) (A) (A)
                 (A) (A) (A) (A) (A) (A) (A) (A) (A) (A) (A) (A)
                 (A) (A) (A) (A) (A) (A) (A) (A) (A) (A) (A) (A)
                 (A) (A) (A) (A) (A) (A) (A) (A) (A) (A) (A) (A)
                 (A) (A) (A) (A) (A) (A) (A) (A) (A) (A) (A) (A)
                 (A) (A) (A) (A) (A) (A) (A) (A) (A) (A) (A) (A)
                 (A) (A) (A) (A) (A) (A) (A) (A) (A) (A) (A) (A)
                 (A) (A) (A) (A) (A) (A) (A) (A) (A) (A) (A) (A)
                 (A) (A) (A) (A) (A) (A) (A) (A) (A) (A) (A) (A)
                 (A) (A) (A) (A) (A) (A) (A) (A) (A) (A) (A) (A)
                 (A) (A) (A) (A) (A) (A) (A) (A) (A) (A) (A) (A)
                 (A) (A) (A) (A) (A) (A) (A) (A) (A) (A) (A) (A)
                 (A) (A) (A) (A) (A) (A) (A) (A) (A) (A) (A) (A)
                 (A) (A) (A) (A) (A) (A) (A) (A) (A) (A) (A) (A)
                 (A) (A) (A) (A) (A) (A) (A) (A) (A) (A) (A) (A)
                 (A) (A) (A) (A) (A) (A) (A) (A) (A) (A) (A) (A)
                 (A) (A) (A) (A) (A) (A) (A) (A) (A) (A) (A) (A)
                 (A) (A) (A) (A) (A) (A) (A) (A) (A) (A) (A) (A)
                 (A) (A) (A) (A) (A) (A) (A) (A) (A) (A) (A) (A)
                 (A) (A) (A) (A) (A) (A) (A) (A) (A) (A) (A) (A)
                 (A) (A) (A) (A) (A) (A) (A) (A) (A) (A) (A) (A)
                 (A) (A) (A) (A) (A) (A) (A) (A) (A) (A) (A) (A)
                 (A) (A) (A) (A) (A) (A) (A) (A) (A) (A) (A) (A)
                 (A) (A) (A) (A) (A) (A) (A) (A) (A) (A) (A) (A)
                 (A) (A) (A) (A) (A) (A) (A) (A) (A) (A) (A) (A)
                 (A)
 The electronic state is 1-A.
 Alpha  occ. eigenvalues --  -88.86585 -88.86506 -19.15047 -19.14858 -19.12500
 Alpha  occ. eigenvalues --  -19.12416 -19.12362 -19.12208 -19.12206 -19.12170
 Alpha  occ. eigenvalues --  -10.23186 -10.22856 -10.22840 -10.22661 -10.22018
 Alpha  occ. eigenvalues --  -10.21814 -10.21766 -10.21692 -10.21691 -10.21663
 Alpha  occ. eigenvalues --  -10.21613 -10.21602 -10.21573 -10.21551 -10.21387
 Alpha  occ. eigenvalues --  -10.21353 -10.20265 -10.19896 -10.19857 -10.19367
 Alpha  occ. eigenvalues --  -10.18801 -10.18655 -10.17807 -10.17542 -10.17523
 Alpha  occ. eigenvalues --  -10.17340  -7.95182  -7.95109  -5.91489  -5.91415
 Alpha  occ. eigenvalues --   -5.91102  -5.91024  -5.90759  -5.90689  -1.07590
 Alpha  occ. eigenvalues --   -1.06233  -1.04774  -1.04692  -1.04053  -1.03932
 Alpha  occ. eigenvalues --   -1.03449  -1.03369  -0.88522  -0.86766  -0.81930
 Alpha  occ. eigenvalues --   -0.79719  -0.78399  -0.78152  -0.76483  -0.75705
 Alpha  occ. eigenvalues --   -0.75065  -0.72954  -0.72395  -0.71353  -0.70338
 Alpha  occ. eigenvalues --   -0.68720  -0.66815  -0.66552  -0.63446  -0.62732
 Alpha  occ. eigenvalues --   -0.61186  -0.61059  -0.60875  -0.60810  -0.60254
 Alpha  occ. eigenvalues --   -0.59991  -0.58738  -0.56778  -0.55202  -0.54807
 Alpha  occ. eigenvalues --   -0.53136  -0.51836  -0.51737  -0.51410  -0.50989
 Alpha  occ. eigenvalues --   -0.50478  -0.49970  -0.48958  -0.48912  -0.48796
 Alpha  occ. eigenvalues --   -0.48697  -0.48040  -0.47495  -0.47265  -0.46750
 Alpha  occ. eigenvalues --   -0.46668  -0.46329  -0.45405  -0.45246  -0.45112
 Alpha  occ. eigenvalues --   -0.44160  -0.44139  -0.43957  -0.43920  -0.43054
 Alpha  occ. eigenvalues --   -0.42649  -0.41916  -0.41129  -0.40710  -0.40169
 Alpha  occ. eigenvalues --   -0.39931  -0.39150  -0.38593  -0.38145  -0.37940
 Alpha  occ. eigenvalues --   -0.37477  -0.37003  -0.36354  -0.36263  -0.35950
 Alpha  occ. eigenvalues --   -0.35910  -0.35859  -0.35412  -0.35148  -0.34595
 Alpha  occ. eigenvalues --   -0.34255  -0.33492  -0.33100  -0.32604  -0.32495
 Alpha  occ. eigenvalues --   -0.32441  -0.32391  -0.32319  -0.32266  -0.32249
 Alpha  occ. eigenvalues --   -0.31709  -0.31652  -0.27142  -0.26957  -0.26856
 Alpha  occ. eigenvalues --   -0.26469  -0.26360  -0.25997  -0.25917  -0.23489
 Alpha  occ. eigenvalues --   -0.23149  -0.18033
 Alpha virt. eigenvalues --   -0.03458   0.01410   0.02496   0.02763   0.03721
 Alpha virt. eigenvalues --    0.03953   0.04483   0.04536   0.04773   0.04843
 Alpha virt. eigenvalues --    0.05135   0.05208   0.05628   0.06034   0.06313
 Alpha virt. eigenvalues --    0.06530   0.06595   0.07006   0.07289   0.07742
 Alpha virt. eigenvalues --    0.07831   0.07921   0.08349   0.08411   0.08796
 Alpha virt. eigenvalues --    0.09011   0.09340   0.09614   0.09923   0.10033
 Alpha virt. eigenvalues --    0.10352   0.10700   0.10906   0.11078   0.11558
 Alpha virt. eigenvalues --    0.11959   0.12098   0.12155   0.12282   0.12357
 Alpha virt. eigenvalues --    0.13107   0.13201   0.13310   0.13436   0.13463
 Alpha virt. eigenvalues --    0.14316   0.14366   0.14537   0.14840   0.14946
 Alpha virt. eigenvalues --    0.15080   0.16034   0.16238   0.16397   0.16806
 Alpha virt. eigenvalues --    0.16848   0.17002   0.17104   0.17604   0.18462
 Alpha virt. eigenvalues --    0.19573   0.19848   0.20449   0.20635   0.20775
 Alpha virt. eigenvalues --    0.21017   0.21066   0.21661   0.21841   0.22055
 Alpha virt. eigenvalues --    0.22742   0.23213   0.23760   0.23855   0.24377
 Alpha virt. eigenvalues --    0.24635   0.26030   0.26710   0.27472   0.27630
 Alpha virt. eigenvalues --    0.29305   0.29493   0.29905   0.30187   0.30851
 Alpha virt. eigenvalues --    0.30900   0.31201   0.31673   0.31943   0.32099
 Alpha virt. eigenvalues --    0.32442   0.32565   0.32853   0.33090   0.33264
 Alpha virt. eigenvalues --    0.33699   0.34147   0.34314   0.34440   0.35231
 Alpha virt. eigenvalues --    0.35389   0.36937   0.37025   0.38024   0.38325
 Alpha virt. eigenvalues --    0.38900   0.39181   0.40139   0.40388   0.40970
[...]
 Alpha virt. eigenvalues --    0.22884   0.23476   0.23858   0.24127   0.24433
 Alpha virt. eigenvalues --    0.24987   0.26121   0.26499   0.27452   0.27529
 Alpha virt. eigenvalues --    0.29542   0.29935   0.29982   0.30876   0.30877
 Alpha virt. eigenvalues --    0.31499   0.31510   0.31732   0.31864   0.31887
 Alpha virt. eigenvalues --    0.32008   0.32120   0.32880   0.32890   0.33041
 Alpha virt. eigenvalues --    0.34236   0.34343   0.34348   0.34569   0.35529
 Alpha virt. eigenvalues --    0.35650   0.37088   0.37268   0.38190   0.38528
 Alpha virt. eigenvalues --    0.39123   0.39450   0.40243   0.40363   0.41195
 Alpha virt. eigenvalues --    0.41464   0.42288   0.42321   0.43055   0.43167
 Alpha virt. eigenvalues --    0.43168   0.43601   0.43655   0.43784   0.44124
 Alpha virt. eigenvalues --    0.44699   0.44727   0.44793   0.44962   0.45022
 Alpha virt. eigenvalues --    0.45515   0.45760   0.45770   0.47014   0.48327
 Alpha virt. eigenvalues --    0.48394   0.48635   0.48671   0.49262   0.49800
 Alpha virt. eigenvalues --    0.50155   0.50855   0.50993   0.50997   0.51160
 Alpha virt. eigenvalues --    0.51319   0.51533   0.51649   0.51674   0.52117
 Alpha virt. eigenvalues --    0.52165   0.53597   0.53633   0.54022   0.54145
 Alpha virt. eigenvalues --    0.54551   0.54676   0.54864   0.55064   0.55169
 Alpha virt. eigenvalues --    0.55323   0.55513   0.55874   0.56302   0.56734
 Alpha virt. eigenvalues --    0.56823   0.57441   0.57469   0.58064   0.58174
 Alpha virt. eigenvalues --    0.58263   0.58430   0.59000   0.59037   0.59309
 Alpha virt. eigenvalues --    0.59416   0.59739   0.59851   0.60008   0.60203
 Alpha virt. eigenvalues --    0.60698   0.60904   0.61029   0.61118   0.61147
 Alpha virt. eigenvalues --    0.61343   0.61412   0.61464   0.62339   0.62359
 Alpha virt. eigenvalues --    0.62553   0.62819   0.62930   0.62935   0.62938
 Alpha virt. eigenvalues --    0.63314   0.63338   0.63668   0.64353   0.64496
 Alpha virt. eigenvalues --    0.64904   0.65627   0.66897   0.66907   0.68120
 Alpha virt. eigenvalues --    0.68395   0.68793   0.69530   0.69797   0.71046
 Alpha virt. eigenvalues --    0.71769   0.71910   0.72259   0.72533   0.73127
 Alpha virt. eigenvalues --    0.74220   0.74631   0.75675   0.75858   0.77041
 Alpha virt. eigenvalues --    0.77183   0.77296   0.79945   0.80388   0.80428
 Alpha virt. eigenvalues --    0.80892   0.81581   0.84598   0.85895   0.87358
 Alpha virt. eigenvalues --    0.87468   0.87548   0.88068   0.89607   0.90144
 Alpha virt. eigenvalues --    0.90145   0.90255   0.90397   0.91276   0.91739
 Alpha virt. eigenvalues --    0.93002   0.93198   0.93677   0.94595   0.94756
 Alpha virt. eigenvalues --    0.95725   0.95766   0.96350   0.97122   0.97311
 Alpha virt. eigenvalues --    0.97721   0.98671   0.98686   0.99207   0.99777
 Alpha virt. eigenvalues --    1.01605   1.01835   1.02157   1.02291   1.02326
 Alpha virt. eigenvalues --    1.02720   1.03507   1.03799   1.04481   1.04505
 Alpha virt. eigenvalues --    1.04755   1.05484   1.06104   1.06338   1.06437
 Alpha virt. eigenvalues --    1.07074   1.07276   1.08230   1.08500   1.09230
 Alpha virt. eigenvalues --    1.09323   1.09385   1.09804   1.09909   1.11677
 Alpha virt. eigenvalues --    1.12648   1.12708   1.12782   1.14315   1.14449
 Alpha virt. eigenvalues --    1.14837   1.17652   1.19126   1.19171   1.20313
 Alpha virt. eigenvalues --    1.20405   1.22006   1.23388   1.23735   1.24031
 Alpha virt. eigenvalues --    1.24049   1.24745   1.24990   1.25617   1.25877
 Alpha virt. eigenvalues --    1.26073   1.26144   1.26253   1.29656   1.29824
 Alpha virt. eigenvalues --    1.31114   1.32477   1.33574   1.34043   1.34776
 Alpha virt. eigenvalues --    1.34801   1.39712   1.39873   1.41017   1.41152
 Alpha virt. eigenvalues --    1.41189   1.42409   1.43864   1.43864   1.44442
 Alpha virt. eigenvalues --    1.44865   1.45159   1.45159   1.45485   1.45527
 Alpha virt. eigenvalues --    1.45778   1.45840   1.46374   1.46378   1.46851
 Alpha virt. eigenvalues --    1.46851   1.47114   1.47115   1.47483   1.47483
 Alpha virt. eigenvalues --    1.48268   1.48501   1.49829   1.49837   1.50149
 Alpha virt. eigenvalues --    1.50291   1.50687   1.51097   1.52047   1.52327
 Alpha virt. eigenvalues --    1.52454   1.52905   1.52918   1.53142   1.55130
 Alpha virt. eigenvalues --    1.55136   1.55535   1.55560   1.56806   1.56848
 Alpha virt. eigenvalues --    1.57327   1.57510   1.57561   1.57958   1.58054
 Alpha virt. eigenvalues --    1.58902   1.58987   1.59094   1.59163   1.59177
 Alpha virt. eigenvalues --    1.59206   1.59614   1.59644   1.60003   1.60526
 Alpha virt. eigenvalues --    1.61401   1.61738   1.61755   1.62214   1.62421
 Alpha virt. eigenvalues --    1.62666   1.63292   1.63585   1.63616   1.64698
 Alpha virt. eigenvalues --    1.65238   1.65428   1.65630   1.65831   1.65946
 Alpha virt. eigenvalues --    1.66382   1.66386   1.66392   1.67940   1.68023
 Alpha virt. eigenvalues --    1.68293   1.68874   1.69041   1.69073   1.69267
 Alpha virt. eigenvalues --    1.70696   1.70716   1.71050   1.71722   1.72565
 Alpha virt. eigenvalues --    1.72671   1.73216   1.73393   1.73448   1.76176
 Alpha virt. eigenvalues --    1.76597   1.76691   1.77469   1.77493   1.77581
 Alpha virt. eigenvalues --    1.77658   1.78216   1.78680   1.79225   1.79336
 Alpha virt. eigenvalues --    1.79537   1.81009   1.81134   1.81152   1.82696
 Alpha virt. eigenvalues --    1.82700   1.84088   1.84122   1.86325   1.86694
 Alpha virt. eigenvalues --    1.86963   1.88524   1.89898   1.90174   1.90456
 Alpha virt. eigenvalues --    1.90735   1.90818   1.90875   1.90927   1.94046
 Alpha virt. eigenvalues --    1.95051   1.95549   1.95949   1.96298   1.98108
 Alpha virt. eigenvalues --    1.98720   1.99389   2.00056   2.00227   2.00548
 Alpha virt. eigenvalues --    2.01623   2.01629   2.01728   2.02414   2.02866
 Alpha virt. eigenvalues --    2.03487   2.03510   2.04667   2.04681   2.05492
 Alpha virt. eigenvalues --    2.05570   2.05969   2.06018   2.06427   2.06662
 Alpha virt. eigenvalues --    2.07427   2.08018   2.09135   2.09175   2.09876
 Alpha virt. eigenvalues --    2.09946   2.10331   2.10791   2.11228   2.11975
 Alpha virt. eigenvalues --    2.12691   2.12714   2.12979   2.14597   2.15595
 Alpha virt. eigenvalues --    2.15939   2.16418   2.17144   2.17189   2.17917
 Alpha virt. eigenvalues --    2.18438   2.21173   2.21216   2.21546   2.24323
 Alpha virt. eigenvalues --    2.24383   2.25809   2.25839   2.28037   2.28212
 Alpha virt. eigenvalues --    2.29400   2.29421   2.29699   2.29756   2.30391
 Alpha virt. eigenvalues --    2.30713   2.32195   2.32406   2.34525   2.34533
 Alpha virt. eigenvalues --    2.35101   2.35366   2.35599   2.35607   2.35903
 Alpha virt. eigenvalues --    2.35917   2.35990   2.36075   2.36112   2.36142
 Alpha virt. eigenvalues --    2.36148   2.37081   2.40372   2.41643   2.41643
 Alpha virt. eigenvalues --    2.42082   2.42343   2.42343   2.43479   2.43479
 Alpha virt. eigenvalues --    2.44670   2.44721   2.44744   2.45509   2.46076
 Alpha virt. eigenvalues --    2.46094   2.46094   2.46714   2.47301   2.47689
 Alpha virt. eigenvalues --    2.47827   2.48370   2.48752   2.48862   2.50015
 Alpha virt. eigenvalues --    2.50203   2.51642   2.51854   2.52613   2.52740
 Alpha virt. eigenvalues --    2.53186   2.53195   2.53448   2.54782   2.55007
 Alpha virt. eigenvalues --    2.55040   2.55383   2.55927   2.56110   2.56718
 Alpha virt. eigenvalues --    2.56797   2.57110   2.57336   2.58038   2.58233
 Alpha virt. eigenvalues --    2.60425   2.61146   2.61285   2.62141   2.63196
 Alpha virt. eigenvalues --    2.63540   2.63594   2.63920   2.65715   2.65764
 Alpha virt. eigenvalues --    2.66310   2.70081   2.70190   2.70388   2.71202
 Alpha virt. eigenvalues --    2.71686   2.72566   2.72567   2.73433   2.73480
 Alpha virt. eigenvalues --    2.73605   2.74463   2.74465   2.77839   2.77848
 Alpha virt. eigenvalues --    2.78175   2.79126   2.81119   2.81144   2.82888
 Alpha virt. eigenvalues --    2.83031   2.83083   2.84188   2.84267   2.84676
 Alpha virt. eigenvalues --    2.84725   2.86140   2.86315   2.86895   2.86907
 Alpha virt. eigenvalues --    2.88191   2.88266   2.89977   2.91365   2.91458
 Alpha virt. eigenvalues --    2.92170   2.94611   2.94732   2.94997   2.95360
 Alpha virt. eigenvalues --    2.96352   2.97234   2.98312   2.98994   2.99622
 Alpha virt. eigenvalues --    3.01441   3.01988   3.06772   3.07126   3.07139
 Alpha virt. eigenvalues --    3.09090   3.09094   3.09222   3.12332   3.12397
 Alpha virt. eigenvalues --    3.13916   3.13923   3.15731   3.15935   3.18729
 Alpha virt. eigenvalues --    3.18789   3.18792   3.19200   3.20207   3.21567
 Alpha virt. eigenvalues --    3.21864   3.21961   3.22720   3.23288   3.24424
 Alpha virt. eigenvalues --    3.24521   3.24587   3.24832   3.27382   3.27475
 Alpha virt. eigenvalues --    3.28354   3.28356   3.32063   3.32064   3.32700
 Alpha virt. eigenvalues --    3.33259   3.34096   3.34171   3.36312   3.37056
 Alpha virt. eigenvalues --    3.38227   3.43068   3.44533   3.49720   3.51549
 Alpha virt. eigenvalues --    3.70590   3.75320   3.75320   3.75618   3.75623
 Alpha virt. eigenvalues --    3.75753   3.75756   3.76737   3.76745   3.77273
 Alpha virt. eigenvalues --    3.77311   3.77767   3.77784   3.79744   3.79745
 Alpha virt. eigenvalues --    3.80716   3.80717   3.82337   3.82337   3.82918
 Alpha virt. eigenvalues --    3.82965   3.94666   3.94747   3.95250   3.95254
 Alpha virt. eigenvalues --    3.96611   4.00549   4.00619   4.03425   4.03527
 Alpha virt. eigenvalues --    4.04625   4.06252   4.07431   4.09413   4.09601
 Alpha virt. eigenvalues --    4.10560   4.11083   4.13332   4.13730   4.14212
 Alpha virt. eigenvalues --    4.17367   4.17689   4.20497   4.22029   4.24544
 Alpha virt. eigenvalues --    4.27509   4.29181   4.30138   4.35062   4.35264
 Alpha virt. eigenvalues --    4.58436   4.91557   4.93695   4.94508   4.94511
 Alpha virt. eigenvalues --    4.96244   4.96255   4.97233   4.97240   5.20777
 Alpha virt. eigenvalues --    5.20778   5.25795   5.25800   5.30633   5.30650
 Alpha virt. eigenvalues --    5.32125   5.33836   5.66339   5.66340   5.70262
 Alpha virt. eigenvalues --    5.70274   5.76433   5.76630   5.77766   5.80968
 Alpha virt. eigenvalues --    7.81964   7.82221  17.20110  17.22218  17.42391
 Alpha virt. eigenvalues --   17.43190  17.48427  17.53282  23.43095  23.66954
 Alpha virt. eigenvalues --   23.77233  23.77266  23.78195  23.78203  23.78213
 Alpha virt. eigenvalues --   23.78492  23.78492  23.79256  23.79388  23.80429
 Alpha virt. eigenvalues --   23.80508  23.81113  23.81140  23.83408  23.85980
 Alpha virt. eigenvalues --   23.85980  23.87170  23.87201  23.88080  23.88216
 Alpha virt. eigenvalues --   24.03741  24.04086  24.16344  24.16719  49.88198
 Alpha virt. eigenvalues --   49.88198  49.91311  49.91314  49.93178  49.93196
 Alpha virt. eigenvalues --   49.93413  49.94200 188.93365 188.93811
          Condensed to atoms (all electrons):
 Mulliken charges:
               1
     1  C   -0.231686
     2  C    0.237287
     3  C   -0.092803
     4  C   -0.306037
     5  S    0.311760
     6  O   -0.378650
     7  H    0.105194
     8  C   -0.231703
     9  C    0.237289
    10  C   -0.092804
    11  C   -0.306046
    12  S    0.311771
    13  O   -0.378645
    14  H    0.105194
    15  C   -0.009405
    16  H    0.109099
    17  H    0.109089
    18  C   -0.235360
    19  H    0.123993
    20  H    0.123998
    21  C   -0.239436
    22  H    0.114819
    23  H    0.114821
    24  C    0.035533
    25  H    0.088994
    26  H    0.089002
    27  O   -0.384946
    28  C   -0.000352
    29  H    0.094445
    30  H    0.094435
    31  C    0.002354
    32  H    0.095981
    33  H    0.095975
    34  O   -0.390283
    35  C    0.001311
    36  H    0.096997
    37  H    0.097000
    38  C   -0.008142
    39  H    0.093891
    40  H    0.093891
    41  O   -0.370378
    42  C   -0.101848
    43  H    0.089004
    44  H    0.115373
    45  H    0.089005
    46  C   -0.009407
    47  H    0.109082
    48  H    0.109104
    49  C   -0.235355
    50  H    0.123986
    51  H    0.124001
    52  C   -0.239433
    53  H    0.114816
    54  H    0.114822
    55  C    0.035532
    56  H    0.088992
    57  H    0.089005
    58  O   -0.384943
    59  C   -0.000354
    60  H    0.094446
    61  H    0.094434
    62  C    0.002354
    63  H    0.095980
    64  H    0.095976
    65  O   -0.390283
    66  C    0.001311
    67  H    0.096997
    68  H    0.097000
    69  C   -0.008142
    70  H    0.093890
    71  H    0.093892
    72  O   -0.370379
    73  C   -0.101848
    74  H    0.089005
    75  H    0.115373
    76  H    0.089005
    77  H    0.126080
    78  H    0.126081
 Sum of Mulliken charges =  -0.00000
 Mulliken charges with hydrogens summed into heavy atoms:
               1
     1  C   -0.231686
     2  C    0.237287
     3  C    0.012391
     4  C   -0.179956
     5  S    0.311760
     6  O   -0.378650
     8  C   -0.231703
     9  C    0.237289
    10  C    0.012390
    11  C   -0.179965
    12  S    0.311771
    13  O   -0.378645
    15  C    0.208784
    18  C    0.012631
    21  C   -0.009796
    24  C    0.213530
    27  O   -0.384946
    28  C    0.188528
    31  C    0.194310
    34  O   -0.390283
    35  C    0.195308
    38  C    0.179640
    41  O   -0.370378
    42  C    0.191534
    46  C    0.208780
    49  C    0.012631
    52  C   -0.009796
    55  C    0.213529
    58  O   -0.384943
    59  C    0.188526
    62  C    0.194310
    65  O   -0.390283
    66  C    0.195308
    69  C    0.179641
    72  O   -0.370379
    73  C    0.191534
 Electronic spatial extent (au):  <R**2>=          90120.9652
 Charge=             -0.0000 electrons
 Dipole moment (field-independent basis, Debye):
    X=              0.0001    Y=             -0.0000    Z=             -0.0002  Tot=              0.0003
 Quadrupole moment (field-independent basis, Debye-Ang):
   XX=           -194.7336   YY=           -222.4003   ZZ=           -236.8850
   XY=             22.9864   XZ=              0.0100   YZ=             -0.0022
 Traceless Quadrupole moment (field-independent basis, Debye-Ang):
   XX=             23.2727   YY=             -4.3940   ZZ=            -18.8787
   XY=             22.9864   XZ=              0.0100   YZ=             -0.0022
 Octapole moment (field-independent basis, Debye-Ang**2):
  XXX=             -0.0219  YYY=             -0.0038  ZZZ=              0.0310  XYY=              0.0124
  XXY=              0.0078  XXZ=             -0.2674  XZZ=              0.0000  YZZ=              0.0016
  YYZ=             -0.0048  XYZ=              0.0616
 Hexadecapole moment (field-independent basis, Debye-Ang**3):
 XXXX=         -97183.3630 YYYY=          -2660.4288 ZZZZ=           -387.0394 XXXY=           7382.2854
 XXXZ=              1.7689 YYYX=            -28.6292 YYYZ=             -0.0033 ZZZX=             -0.0063
 ZZZY=              0.0006 XXYY=         -19428.2556 XXZZ=         -18945.0587 YYZZ=           -582.6696
 XXYZ=             -0.2815 YYXZ=              0.0186 ZZXY=              0.4782
 N-N= 3.677438242272D+03 E-N=-1.302805006308D+04  KE= 2.407301245051D+03
 No NMR shielding tensors so no spin-rotation constants.
 Leave Link  601 at Tue Mar 31 08:55:05 2020, MaxMem=  6710886400 cpu:               5.1 elap:               0.7
 (Enter /apps/gaussian/g16-a03/l9999.exe)
 1\1\GINC-CX1-141-15-1\FOpt\RB3LYP\6-311G(d,p)\C26H42O8S2\NS5018\31-Mar
 -2020\0\\#p opt b3lyp/6-311g**\\E.gjf\\0,1\C,-0.7718399804,0.176865340
 5,-0.0116944438\C,-1.3879498612,1.4191408101,-0.0067377117\C,-2.811213
 6746,1.3648523986,-0.0027566889\C,-3.2768251702,0.0820284851,-0.004692
 7617\S,-2.0009712207,-1.0814186904,-0.0113395758\O,-0.6249926177,2.549
 3168658,-0.0061097911\H,-3.4557116185,2.2316077426,0.0013388567\C,0.64
 23400127,-0.1149410197,-0.0165998123\C,1.2584976697,-1.3571994601,-0.0
 213819494\C,2.681756094,-1.3028660169,-0.0255175568\C,3.147329127,-0.0
 200285413,-0.0238696678\S,1.8714266195,1.1433742877,-0.0173223491\O,0.
 4955978669,-2.4874141052,-0.0216521735\H,3.3262800546,-2.1696030471,-0
 .0294634401\C,-1.288677018,3.8145704229,-0.0005944754\H,-1.923799076,3
 .8954327406,0.8907550947\H,-1.9292070998,3.9003262151,-0.8876049569\C,
 -0.2242905545,4.8999447162,-0.0008509267\H,0.4156690709,4.7583370391,0
 .8760914175\H,0.4105118723,4.7629572048,-0.8822648155\C,-0.8336688363,
 6.30545894,0.0046215417\H,-1.4695116781,6.4428318956,0.8858360859\H,-1
 .4745566061,6.4474881136,-0.8721881902\C,0.2237886633,7.3995030134,0.0
 044991033\H,0.8725070543,7.3074652791,0.8897797698\H,0.8673608474,7.31
 22460597,-0.8850124444\O,-0.4319754175,8.6562310738,0.0097823155\C,0.4
 57421594,9.7568008845,0.0104042\H,1.1072272116,9.7398339239,0.89728369
 41\H,1.1025552761,9.7446137686,-0.8799574956\C,-0.3805288636,11.023247
 2589,0.0160316562\H,-1.0252509154,11.0366066325,0.9063120476\H,-1.0297
 179008,11.0415793449,-0.8709072124\O,0.5091772992,12.1238552372,0.0168
 699656\C,-0.1468794971,13.3784035962,0.0219267546\H,-0.7820040729,13.4
 873185849,0.9124357982\H,-0.7862908573,13.4922414113,-0.8648915116\C,0
 .9227825447,14.4560357431,0.0223303101\H,1.5589735306,14.3454311574,-0
 .8683089773\H,1.5632388251,14.3405347242,0.9092832975\O,0.2663790081,1
 5.7081846118,0.0273545656\C,1.1625284,16.8000855833,0.0282075726\H,1.8
 031845969,16.7983162012,-0.8655301652\H,0.5625975012,17.7105539106,0.0
 321505685\H,1.8074654578,16.7934095998,0.9188379429\C,1.159336938,-3.7
 52634625,-0.0282335474\H,1.8002893367,-3.8389040165,0.8584261339\H,1.7
 940409995,-3.8329282644,-0.9199309798\C,0.0950058446,-4.8380626998,-0.
 0280849518\H,-0.5392504027,-4.7017535453,0.8538314604\H,-0.5455210412,
 -4.6958485189,-0.9045137215\C,0.7044382262,-6.2435140906,-0.0349983112
 \H,1.3459794858,-6.3861204471,0.8412400252\H,1.3396534217,-6.380235026
 9,-0.9167702158\C,-0.3529649596,-7.3376020569,-0.0348373398\H,-0.99598
 9175,-7.2508783342,0.8551226273\H,-1.0022373581,-7.2450984137,-0.91966
 46088\O,0.3028568085,-8.594293961,-0.0412422843\C,-0.5864997005,-9.694
 8948792,-0.0413310874\H,-1.2305259087,-9.6831940735,0.8498390469\H,-1.
 2374095056,-9.677491049,-0.9273919213\C,0.2514917113,-10.9613060385,-0
 .0486203584\H,0.9020046946,-10.9798644662,0.8373441179\H,0.8948851738,
 -10.9743838381,-0.9398648289\O,-0.6381696249,-12.0619506313,-0.0484571
 068\C,0.0179286925,-13.3164705773,-0.0550832285\H,0.6588432183,-13.430
 6067345,0.8306111872\H,0.6515520902,-13.4250317059,-0.9467042274\C,-1.
 0516866577,-14.3941494552,-0.0540746429\H,-1.6936574159,-14.2783370279
 ,-0.9398914294\H,-1.6863647776,-14.2839110102,0.8376884126\O,-0.395242
 1222,-15.6462699395,-0.0606947083\C,-1.2913456045,-16.7382092939,-0.06
 04747229\H,-1.9377847098,-16.7312009557,-0.9500128276\H,-0.6913859851,
 -17.6486518633,-0.0657962512\H,-1.9304932836,-16.7368261186,0.83434312
 39\H,4.1739228828,0.3116767255,-0.0261225779\H,-4.3034349532,-0.249613
 0055,-0.0025337218\\Version=ES64L-G16RevA.03\State=1-A\HF=-2414.582086
 7\RMSD=4.256e-09\RMSF=2.071e-06\Dipole=-0.0000079,0.0000416,0.0000968\
 Quadrupole=-2.3834993,16.4193792,-14.0358799,17.5912188,0.0178219,0.02
 82986\PG=C01 [X(C26H42O8S2)]\\@


 IF YOU BELIEVE CERTAIN WORDS, YOU BELIEVE THEIR HIDDEN ARGUMENTS.
 WHEN YOU BELIEVE SOMETHING IS RIGHT OR WRONG, TRUE OR FALSE, 
 YOU BELIEVE THE ASSUMPTIONS IN THE WORDS WHICH EXPRESS THE ARGUMENTS.
 SUCH ASSUMPTIONS ARE OFTEN FULL OF HOLES, BUT REMAIN MOST PRECIOUS 
 TO THE CONVINCED.

                 -- THE OPEN-ENDED PROOF FROM THE PANOPLIA PROPHETICA
                    CHILDREN OF DUNE BY FRANK HERBERT
 Job cpu time:       0 days  7 hours 12 minutes 57.9 seconds.
 Elapsed time:       0 days  0 hours 54 minutes 29.9 seconds.
 File lengths (MBytes):  RWF=    518 Int=      0 D2E=      0 Chk=     63 Scr=      1
 Normal termination of Gaussian 16 at Tue Mar 31 08:55:06 2020.
