 Entering Gaussian System, Link 0=g16
 Input=M.gjf
 Output=M.log
 Initial command:
 /apps/gaussian/g16-a03/l1.exe "/tmp/pbs.1260820.pbs/Gau-23994.inp" -scrdir="/tmp/pbs.1260820.pbs/"
 Entering Link 1 = /apps/gaussian/g16-a03/l1.exe PID=     23995.
  
 Copyright (c) 1988,1990,1992,1993,1995,1998,2003,2009,2016,
            Gaussian, Inc.  All Rights Reserved.
  
 This is part of the Gaussian(R) 16 program.  It is based on
 the Gaussian(R) 09 system (copyright 2009, Gaussian, Inc.),
 the Gaussian(R) 03 system (copyright 2003, Gaussian, Inc.),
 the Gaussian(R) 98 system (copyright 1998, Gaussian, Inc.),
 the Gaussian(R) 94 system (copyright 1995, Gaussian, Inc.),
 the Gaussian 92(TM) system (copyright 1992, Gaussian, Inc.),
 the Gaussian 90(TM) system (copyright 1990, Gaussian, Inc.),
 the Gaussian 88(TM) system (copyright 1988, Gaussian, Inc.),
 the Gaussian 86(TM) system (copyright 1986, Carnegie Mellon
 University), and the Gaussian 82(TM) system (copyright 1983,
 Carnegie Mellon University). Gaussian is a federally registered
 trademark of Gaussian, Inc.
  
 This software contains proprietary and confidential information,
 including trade secrets, belonging to Gaussian, Inc.
  
 This software is provided under written license and may be
 used, copied, transmitted, or stored only in accord with that
 written license.
  
 The following legend is applicable only to US Government
 contracts under FAR:
  
                    RESTRICTED RIGHTS LEGEND
  
 Use, reproduction and disclosure by the US Government is
 subject to restrictions as set forth in subparagraphs (a)
 and (c) of the Commercial Computer Software - Restricted
 Rights clause in FAR 52.227-19.
  
 Gaussian, Inc.
 340 Quinnipiac St., Bldg. 40, Wallingford CT 06492
  
  
 ---------------------------------------------------------------
 Warning -- This program may not be used in any manner that
 competes with the business of Gaussian, Inc. or will provide
 assistance to any competitor of Gaussian, Inc.  The licensee
 of this program is prohibited from giving any competitor of
 Gaussian, Inc. access to this program.  By using this program,
 the user acknowledges that Gaussian, Inc. is engaged in the
 business of creating and licensing software in the field of
 computational chemistry and represents and warrants to the
 licensee that it is not a competitor of Gaussian, Inc. and that
 it will not use this program in any manner prohibited above.
 ---------------------------------------------------------------
  

 Cite this work as:
 Gaussian 16, Revision A.03,
 M. J. Frisch, G. W. Trucks, H. B. Schlegel, G. E. Scuseria, 
 M. A. Robb, J. R. Cheeseman, G. Scalmani, V. Barone, 
 G. A. Petersson, H. Nakatsuji, X. Li, M. Caricato, A. V. Marenich, 
 J. Bloino, B. G. Janesko, R. Gomperts, B. Mennucci, H. P. Hratchian, 
 J. V. Ortiz, A. F. Izmaylov, J. L. Sonnenberg, D. Williams-Young, 
 F. Ding, F. Lipparini, F. Egidi, J. Goings, B. Peng, A. Petrone, 
 T. Henderson, D. Ranasinghe, V. G. Zakrzewski, J. Gao, N. Rega, 
 G. Zheng, W. Liang, M. Hada, M. Ehara, K. Toyota, R. Fukuda, 
 J. Hasegawa, M. Ishida, T. Nakajima, Y. Honda, O. Kitao, H. Nakai, 
 T. Vreven, K. Throssell, J. A. Montgomery, Jr., J. E. Peralta, 
 F. Ogliaro, M. J. Bearpark, J. J. Heyd, E. N. Brothers, K. N. Kudin, 
 V. N. Staroverov, T. A. Keith, R. Kobayashi, J. Normand, 
 K. Raghavachari, A. P. Rendell, J. C. Burant, S. S. Iyengar, 
 J. Tomasi, M. Cossi, J. M. Millam, M. Klene, C. Adamo, R. Cammi, 
 J. W. Ochterski, R. L. Martin, K. Morokuma, O. Farkas, 
 J. B. Foresman, and D. J. Fox, Gaussian, Inc., Wallingford CT, 2016.
 
 ******************************************
 Gaussian 16:  ES64L-G16RevA.03 25-Dec-2016
                31-Mar-2020 
 ******************************************
 %mem=50GB
 %nprocshared=8
 Will use up to    8 processors via shared memory.
 ---------------------
 #p opt b3lyp/6-311g**
 ---------------------
 1/18=20,19=15,26=3,38=1/1,3;
 2/9=110,12=2,17=6,18=5,40=1/2;
 3/5=4,6=6,7=101,11=2,25=1,30=1,71=1,74=-5/1,2,3;
 4//1;
 5/5=2,38=5/2;
 6/7=2,8=2,9=2,10=2,28=1/1;
 7//1,2,3,16;
 1/18=20,19=15,26=3/3(2);
 2/9=110/2;
 99//99;
 2/9=110/2;
 3/5=4,6=6,7=101,11=2,25=1,30=1,71=1,74=-5/1,2,3;
 4/5=5,16=3,69=1/1;
 5/5=2,38=5/2;
 7//1,2,3,16;
 1/18=20,19=15,26=3/3(-5);
 2/9=110/2;
 6/7=2,8=2,9=2,10=2,19=2,28=1/1;
 99/9=1/99;
 Leave Link    1 at Tue Mar 31 07:54:54 2020, MaxMem=  6710886400 cpu:               1.6 elap:               0.3
 (Enter /apps/gaussian/g16-a03/l101.exe)
 -----
 M.gjf
 -----
 Symbolic Z-matrix:
 Charge =  0 Multiplicity = 1
 C                    -0.706     0.154     0. 
 C                    -1.31      1.401    -0.001 
 C                    -2.733     1.362     0.001 
 C                    -3.212     0.086     0.004 
 S                    -1.948    -1.091     0.004 
 O                    -0.536     2.524    -0.003 
 H                    -3.366     2.237     0.002 
 C                     0.706    -0.154    -0.002 
 C                     1.31     -1.401    -0.001 
 C                     2.733    -1.363    -0.003 
 C                     3.212    -0.086    -0.006 
 S                     1.949     1.091    -0.005 
 O                     0.536    -2.524     0.002 
 H                     3.368    -2.237    -0.003 
 C                    -0.992     3.868    -0.182 
 H                    -1.151     3.84     -1.239 
 H                    -1.908     4.119     0.31 
 C                     0.104     5.047    -0.027 
 H                     0.775     4.98      0.804 
 H                     0.654     4.946    -0.939 
 C                    -0.596     6.393    -0.005 
 H                    -1.287     6.469    -0.856 
 H                    -1.182     6.495     0.919 
 O                     0.414     7.381    -0.079 
 C                    -0.089     8.705    -0.069 
 H                    -0.759     8.877    -0.923 
 H                    -0.654     8.903     0.852 
 C                     1.099     9.648    -0.153 
 H                     1.665     9.446    -1.074 
 H                     1.77      9.474     0.7 
 O                     0.595     10.969   -0.143 
 C                     1.605     11.958   -0.218 
 H                     2.191     11.852   -1.141 
 H                     2.296     11.879    0.633 
 C                     0.923     13.313   -0.199 
 H                     0.334     13.418    0.725 
 H                     0.229     13.391   -1.049 
 O                     1.932     14.3     -0.273 
 C                     1.419     15.616   -0.262 
 H                     0.86      15.825    0.661 
 H                     2.27      16.295   -0.322 
 H                     0.755     15.799   -1.119 
 C                     1.132    -3.71     -0.237 
 H                     1.761    -3.821     0.653 
 H                     1.758    -3.824    -1.128 
 C                    -0.026    -4.794     0.051 
 H                    -0.548    -4.924    -0.904 
 H                    -0.761    -4.54      0.823 
 C                     0.691    -6.079     0.425 
 H                     1.432    -6.33     -0.346 
 H                     1.219    -5.947     1.379 
 O                    -0.299    -7.085     0.527 
 C                     0.22     -8.356     0.873 
 H                     0.944    -8.703     0.122 
 H                     0.731    -8.319     1.845 
 C                    -0.947    -9.324     0.945 
 H                    -1.46     -9.36     -0.027 
 H                    -1.672    -8.976     1.695 
 O                    -0.426    -10.593    1.292 
 C                    -1.415    -11.601    1.394 
 H                    -1.946    -11.728    0.438 
 H                    -2.159    -11.346    2.162 
 C                    -0.715    -12.895    1.767 
 H                    -0.183    -12.765    2.721 
 H                     0.029    -13.148    0.998 
 O                    -1.705    -13.899    1.869 
 C                    -1.176    -15.162    2.215 
 H                    -0.671    -15.136    3.192 
 H                    -2.012    -15.86     2.267 
 H                    -0.458    -15.52     1.463 
 H                    -4.213    -0.278    -0.058 
 H                     4.258     0.181     0.067 
 
 ITRead=  0  0  0  0  0  0  0  0  0  0  0  0  0  0  0  0  0  0  0  0
 ITRead=  0  0  0  0  0  0  0  0  0  0  0  0  0  0  0  0  0  0  0  0
 ITRead=  0  0  0  0  0  0  0  0  0  0  0  0  0  0  0  0  0  0  0  0
 ITRead=  0  0  0  0  0  0  0  0  0  0  0  0
 MicOpt= -1 -1 -1 -1 -1 -1 -1 -1 -1 -1 -1 -1 -1 -1 -1 -1 -1 -1 -1 -1
 MicOpt= -1 -1 -1 -1 -1 -1 -1 -1 -1 -1 -1 -1 -1 -1 -1 -1 -1 -1 -1 -1
 MicOpt= -1 -1 -1 -1 -1 -1 -1 -1 -1 -1 -1 -1 -1 -1 -1 -1 -1 -1 -1 -1
 MicOpt= -1 -1 -1 -1 -1 -1 -1 -1 -1 -1 -1 -1
 NAtoms=     72 NQM=       72 NQMF=       0 NMMI=      0 NMMIF=      0
                NMic=       0 NMicF=      0.
                    Isotopes and Nuclear Properties:
 (Nuclear quadrupole moments (NQMom) in fm**2, nuclear magnetic moments (NMagM)
  in nuclear magnetons)

  Atom         1           2           3           4           5           6           7           8           9          10
 IAtWgt=          12          12          12          12          32          16           1          12          12          12
 AtmWgt=  12.0000000  12.0000000  12.0000000  12.0000000  31.9720718  15.9949146   1.0078250  12.0000000  12.0000000  12.0000000
 NucSpn=           0           0           0           0           0           0           1           0           0           0
 AtZEff=  -0.0000000  -0.0000000  -0.0000000  -0.0000000  -0.0000000  -0.0000000  -0.0000000  -0.0000000  -0.0000000  -0.0000000
 NQMom=    0.0000000   0.0000000   0.0000000   0.0000000   0.0000000   0.0000000   0.0000000   0.0000000   0.0000000   0.0000000
 NMagM=    0.0000000   0.0000000   0.0000000   0.0000000   0.0000000   0.0000000   2.7928460   0.0000000   0.0000000   0.0000000
 AtZNuc=   6.0000000   6.0000000   6.0000000   6.0000000  16.0000000   8.0000000   1.0000000   6.0000000   6.0000000   6.0000000

  Atom        11          12          13          14          15          16          17          18          19          20
 IAtWgt=          12          32          16           1          12           1           1          12           1           1
 AtmWgt=  12.0000000  31.9720718  15.9949146   1.0078250  12.0000000   1.0078250   1.0078250  12.0000000   1.0078250   1.0078250
 NucSpn=           0           0           0           1           0           1           1           0           1           1
 AtZEff=  -0.0000000  -0.0000000  -0.0000000  -0.0000000  -0.0000000  -0.0000000  -0.0000000  -0.0000000  -0.0000000  -0.0000000
 NQMom=    0.0000000   0.0000000   0.0000000   0.0000000   0.0000000   0.0000000   0.0000000   0.0000000   0.0000000   0.0000000
 NMagM=    0.0000000   0.0000000   0.0000000   2.7928460   0.0000000   2.7928460   2.7928460   0.0000000   2.7928460   2.7928460
 AtZNuc=   6.0000000  16.0000000   8.0000000   1.0000000   6.0000000   1.0000000   1.0000000   6.0000000   1.0000000   1.0000000

  Atom        21          22          23          24          25          26          27          28          29          30
 IAtWgt=          12           1           1          16          12           1           1          12           1           1
 AtmWgt=  12.0000000   1.0078250   1.0078250  15.9949146  12.0000000   1.0078250   1.0078250  12.0000000   1.0078250   1.0078250
 NucSpn=           0           1           1           0           0           1           1           0           1           1
 AtZEff=  -0.0000000  -0.0000000  -0.0000000  -0.0000000  -0.0000000  -0.0000000  -0.0000000  -0.0000000  -0.0000000  -0.0000000
 NQMom=    0.0000000   0.0000000   0.0000000   0.0000000   0.0000000   0.0000000   0.0000000   0.0000000   0.0000000   0.0000000
 NMagM=    0.0000000   2.7928460   2.7928460   0.0000000   0.0000000   2.7928460   2.7928460   0.0000000   2.7928460   2.7928460
 AtZNuc=   6.0000000   1.0000000   1.0000000   8.0000000   6.0000000   1.0000000   1.0000000   6.0000000   1.0000000   1.0000000

  Atom        31          32          33          34          35          36          37          38          39          40
 IAtWgt=          16          12           1           1          12           1           1          16          12           1
 AtmWgt=  15.9949146  12.0000000   1.0078250   1.0078250  12.0000000   1.0078250   1.0078250  15.9949146  12.0000000   1.0078250
 NucSpn=           0           0           1           1           0           1           1           0           0           1
 AtZEff=  -0.0000000  -0.0000000  -0.0000000  -0.0000000  -0.0000000  -0.0000000  -0.0000000  -0.0000000  -0.0000000  -0.0000000
 NQMom=    0.0000000   0.0000000   0.0000000   0.0000000   0.0000000   0.0000000   0.0000000   0.0000000   0.0000000   0.0000000
 NMagM=    0.0000000   0.0000000   2.7928460   2.7928460   0.0000000   2.7928460   2.7928460   0.0000000   0.0000000   2.7928460
 AtZNuc=   8.0000000   6.0000000   1.0000000   1.0000000   6.0000000   1.0000000   1.0000000   8.0000000   6.0000000   1.0000000

  Atom        41          42          43          44          45          46          47          48          49          50
 IAtWgt=           1           1          12           1           1          12           1           1          12           1
 AtmWgt=   1.0078250   1.0078250  12.0000000   1.0078250   1.0078250  12.0000000   1.0078250   1.0078250  12.0000000   1.0078250
 NucSpn=           1           1           0           1           1           0           1           1           0           1
 AtZEff=  -0.0000000  -0.0000000  -0.0000000  -0.0000000  -0.0000000  -0.0000000  -0.0000000  -0.0000000  -0.0000000  -0.0000000
 NQMom=    0.0000000   0.0000000   0.0000000   0.0000000   0.0000000   0.0000000   0.0000000   0.0000000   0.0000000   0.0000000
 NMagM=    2.7928460   2.7928460   0.0000000   2.7928460   2.7928460   0.0000000   2.7928460   2.7928460   0.0000000   2.7928460
 AtZNuc=   1.0000000   1.0000000   6.0000000   1.0000000   1.0000000   6.0000000   1.0000000   1.0000000   6.0000000   1.0000000

  Atom        51          52          53          54          55          56          57          58          59          60
 IAtWgt=           1          16          12           1           1          12           1           1          16          12
 AtmWgt=   1.0078250  15.9949146  12.0000000   1.0078250   1.0078250  12.0000000   1.0078250   1.0078250  15.9949146  12.0000000
 NucSpn=           1           0           0           1           1           0           1           1           0           0
 AtZEff=  -0.0000000  -0.0000000  -0.0000000  -0.0000000  -0.0000000  -0.0000000  -0.0000000  -0.0000000  -0.0000000  -0.0000000
 NQMom=    0.0000000   0.0000000   0.0000000   0.0000000   0.0000000   0.0000000   0.0000000   0.0000000   0.0000000   0.0000000
 NMagM=    2.7928460   0.0000000   0.0000000   2.7928460   2.7928460   0.0000000   2.7928460   2.7928460   0.0000000   0.0000000
 AtZNuc=   1.0000000   8.0000000   6.0000000   1.0000000   1.0000000   6.0000000   1.0000000   1.0000000   8.0000000   6.0000000

  Atom        61          62          63          64          65          66          67          68          69          70
 IAtWgt=           1           1          12           1           1          16          12           1           1           1
 AtmWgt=   1.0078250   1.0078250  12.0000000   1.0078250   1.0078250  15.9949146  12.0000000   1.0078250   1.0078250   1.0078250
 NucSpn=           1           1           0           1           1           0           0           1           1           1
 AtZEff=  -0.0000000  -0.0000000  -0.0000000  -0.0000000  -0.0000000  -0.0000000  -0.0000000  -0.0000000  -0.0000000  -0.0000000
 NQMom=    0.0000000   0.0000000   0.0000000   0.0000000   0.0000000   0.0000000   0.0000000   0.0000000   0.0000000   0.0000000
 NMagM=    2.7928460   2.7928460   0.0000000   2.7928460   2.7928460   0.0000000   0.0000000   2.7928460   2.7928460   2.7928460
 AtZNuc=   1.0000000   1.0000000   6.0000000   1.0000000   1.0000000   8.0000000   6.0000000   1.0000000   1.0000000   1.0000000

  Atom        71          72
 IAtWgt=           1           1
 AtmWgt=   1.0078250   1.0078250
 NucSpn=           1           1
 AtZEff=  -0.0000000  -0.0000000
 NQMom=    0.0000000   0.0000000
 NMagM=    2.7928460   2.7928460
 AtZNuc=   1.0000000   1.0000000
 Leave Link  101 at Tue Mar 31 07:54:55 2020, MaxMem=  6710886400 cpu:               4.4 elap:               0.7
 (Enter /apps/gaussian/g16-a03/l103.exe)

 GradGradGradGradGradGradGradGradGradGradGradGradGradGradGradGradGradGrad
 Berny optimization.
 Initialization pass.
                           ----------------------------
                           !    Initial Parameters    !
                           ! (Angstroms and Degrees)  !
 --------------------------                            --------------------------
 ! Name  Definition              Value          Derivative Info.                !
 --------------------------------------------------------------------------------
 ! R1    R(1,2)                  1.3856         estimate D2E/DX2                !
 ! R2    R(1,5)                  1.7586         estimate D2E/DX2                !
 ! R3    R(1,8)                  1.4452         estimate D2E/DX2                !
 ! R4    R(2,3)                  1.4235         estimate D2E/DX2                !
 ! R5    R(2,6)                  1.3639         estimate D2E/DX2                !
 ! R6    R(3,4)                  1.3629         estimate D2E/DX2                !
 ! R7    R(3,7)                  1.08           estimate D2E/DX2                !
 ! R8    R(4,5)                  1.7271         estimate D2E/DX2                !
 ! R9    R(4,71)                 1.0669         estimate D2E/DX2                !
 ! R10   R(6,15)                 1.4305         estimate D2E/DX2                !
 ! R11   R(8,9)                  1.3856         estimate D2E/DX2                !
 ! R12   R(8,12)                 1.7593         estimate D2E/DX2                !
 ! R13   R(9,10)                 1.4235         estimate D2E/DX2                !
 ! R14   R(9,13)                 1.3639         estimate D2E/DX2                !
 ! R15   R(10,11)                1.3639         estimate D2E/DX2                !
 ! R16   R(10,14)                1.0803         estimate D2E/DX2                !
 ! R17   R(11,12)                1.7264         estimate D2E/DX2                !
 ! R18   R(11,72)                1.082          estimate D2E/DX2                !
 ! R19   R(13,43)                1.3487         estimate D2E/DX2                !
 ! R20   R(15,16)                1.0693         estimate D2E/DX2                !
 ! R21   R(15,17)                1.0696         estimate D2E/DX2                !
 ! R22   R(15,18)                1.6172         estimate D2E/DX2                !
 ! R23   R(18,19)                1.0702         estimate D2E/DX2                !
 ! R24   R(18,20)                1.0698         estimate D2E/DX2                !
 ! R25   R(18,21)                1.5173         estimate D2E/DX2                !
 ! R26   R(21,22)                1.0988         estimate D2E/DX2                !
 ! R27   R(21,23)                1.0989         estimate D2E/DX2                !
 ! R28   R(21,24)                1.4148         estimate D2E/DX2                !
 ! R29   R(24,25)                1.4164         estimate D2E/DX2                !
 ! R30   R(25,26)                1.099          estimate D2E/DX2                !
 ! R31   R(25,27)                1.0985         estimate D2E/DX2                !
 ! R32   R(25,28)                1.5191         estimate D2E/DX2                !
 ! R33   R(28,29)                1.0997         estimate D2E/DX2                !
 ! R34   R(28,30)                1.0991         estimate D2E/DX2                !
 ! R35   R(28,31)                1.4139         estimate D2E/DX2                !
 ! R36   R(31,32)                1.4156         estimate D2E/DX2                !
 ! R37   R(32,33)                1.0984         estimate D2E/DX2                !
 ! R38   R(32,34)                1.0991         estimate D2E/DX2                !
 ! R39   R(32,35)                1.5171         estimate D2E/DX2                !
 ! R40   R(35,36)                1.1008         estimate D2E/DX2                !
 ! R41   R(35,37)                1.1001         estimate D2E/DX2                !
 ! R42   R(35,38)                1.4134         estimate D2E/DX2                !
 ! R43   R(38,39)                1.4125         estimate D2E/DX2                !
 ! R44   R(39,40)                1.0991         estimate D2E/DX2                !
 ! R45   R(39,41)                1.0903         estimate D2E/DX2                !
 ! R46   R(39,42)                1.0995         estimate D2E/DX2                !
 ! R47   R(43,44)                1.0955         estimate D2E/DX2                !
 ! R48   R(43,45)                1.0949         estimate D2E/DX2                !
 ! R49   R(43,46)                1.6121         estimate D2E/DX2                !
 ! R50   R(46,47)                1.0961         estimate D2E/DX2                !
 ! R51   R(46,48)                1.0958         estimate D2E/DX2                !
 ! R52   R(46,49)                1.5183         estimate D2E/DX2                !
 ! R53   R(49,50)                1.0984         estimate D2E/DX2                !
 ! R54   R(49,51)                1.0983         estimate D2E/DX2                !
 ! R55   R(49,52)                1.4151         estimate D2E/DX2                !
 ! R56   R(52,53)                1.4158         estimate D2E/DX2                !
 ! R57   R(53,54)                1.0994         estimate D2E/DX2                !
 ! R58   R(53,55)                1.0988         estimate D2E/DX2                !
 ! R59   R(53,56)                1.5179         estimate D2E/DX2                !
 ! R60   R(56,57)                1.0997         estimate D2E/DX2                !
 ! R61   R(56,58)                1.0996         estimate D2E/DX2                !
 ! R62   R(56,59)                1.415          estimate D2E/DX2                !
 ! R63   R(59,60)                1.4158         estimate D2E/DX2                !
 ! R64   R(60,61)                1.1009         estimate D2E/DX2                !
 ! R65   R(60,62)                1.0993         estimate D2E/DX2                !
 ! R66   R(60,63)                1.5177         estimate D2E/DX2                !
 ! R67   R(63,64)                1.1            estimate D2E/DX2                !
 ! R68   R(63,65)                1.0995         estimate D2E/DX2                !
 ! R69   R(63,66)                1.4137         estimate D2E/DX2                !
 ! R70   R(66,67)                1.4123         estimate D2E/DX2                !
 ! R71   R(67,68)                1.1001         estimate D2E/DX2                !
 ! R72   R(67,69)                1.0903         estimate D2E/DX2                !
 ! R73   R(67,70)                1.0996         estimate D2E/DX2                !
 ! A1    A(2,1,5)              109.2254         estimate D2E/DX2                !
 ! A2    A(2,1,8)              128.1489         estimate D2E/DX2                !
 ! A3    A(5,1,8)              122.6258         estimate D2E/DX2                !
 ! A4    A(1,2,3)              114.2738         estimate D2E/DX2                !
 ! A5    A(1,2,6)              119.5806         estimate D2E/DX2                !
 ! A6    A(3,2,6)              126.1456         estimate D2E/DX2                !
 ! A7    A(2,3,4)              112.1457         estimate D2E/DX2                !
 ! A8    A(2,3,7)              124.3132         estimate D2E/DX2                !
 ! A9    A(4,3,7)              123.541          estimate D2E/DX2                !
 ! A10   A(3,4,5)              112.383          estimate D2E/DX2                !
 ! A11   A(3,4,71)             130.4663         estimate D2E/DX2                !
 ! A12   A(5,4,71)             117.0087         estimate D2E/DX2                !
 ! A13   A(1,5,4)               91.9721         estimate D2E/DX2                !
 ! A14   A(2,6,15)             126.3613         estimate D2E/DX2                !
 ! A15   A(1,8,9)              128.1489         estimate D2E/DX2                !
 ! A16   A(1,8,12)             122.6488         estimate D2E/DX2                !
 ! A17   A(9,8,12)             109.2023         estimate D2E/DX2                !
 ! A18   A(8,9,10)             114.314          estimate D2E/DX2                !
 ! A19   A(8,9,13)             119.5806         estimate D2E/DX2                !
 ! A20   A(10,9,13)            126.1053         estimate D2E/DX2                !
 ! A21   A(9,10,11)            112.0907         estimate D2E/DX2                !
 ! A22   A(9,10,14)            124.4704         estimate D2E/DX2                !
 ! A23   A(11,10,14)           123.4389         estimate D2E/DX2                !
 ! A24   A(10,11,12)           112.4203         estimate D2E/DX2                !
 ! A25   A(10,11,72)           124.779          estimate D2E/DX2                !
 ! A26   A(12,11,72)           122.6127         estimate D2E/DX2                !
 ! A27   A(8,12,11)             91.9726         estimate D2E/DX2                !
 ! A28   A(9,13,43)            118.2219         estimate D2E/DX2                !
 ! A29   A(6,15,16)             98.4239         estimate D2E/DX2                !
 ! A30   A(6,15,17)            115.8425         estimate D2E/DX2                !
 ! A31   A(6,15,18)            117.1894         estimate D2E/DX2                !
 ! A32   A(16,15,17)           109.4813         estimate D2E/DX2                !
 ! A33   A(16,15,18)           102.393          estimate D2E/DX2                !
 ! A34   A(17,15,18)           111.4208         estimate D2E/DX2                !
 ! A35   A(15,18,19)           116.982          estimate D2E/DX2                !
 ! A36   A(15,18,20)           101.4137         estimate D2E/DX2                !
 ! A37   A(15,18,21)           109.6007         estimate D2E/DX2                !
 ! A38   A(19,18,20)           109.4942         estimate D2E/DX2                !
 ! A39   A(19,18,21)           109.4838         estimate D2E/DX2                !
 ! A40   A(20,18,21)           109.4692         estimate D2E/DX2                !
 ! A41   A(18,21,22)           109.8915         estimate D2E/DX2                !
 ! A42   A(18,21,23)           109.9104         estimate D2E/DX2                !
 ! A43   A(18,21,24)           106.821          estimate D2E/DX2                !
 ! A44   A(22,21,23)           108.0251         estimate D2E/DX2                !
 ! A45   A(22,21,24)           111.1068         estimate D2E/DX2                !
 ! A46   A(23,21,24)           111.0904         estimate D2E/DX2                !
 ! A47   A(21,24,25)           113.509          estimate D2E/DX2                !
 ! A48   A(24,25,26)           110.9357         estimate D2E/DX2                !
 ! A49   A(24,25,27)           110.9207         estimate D2E/DX2                !
 ! A50   A(24,25,28)           107.5875         estimate D2E/DX2                !
 ! A51   A(26,25,27)           108.0435         estimate D2E/DX2                !
 ! A52   A(26,25,28)           109.6728         estimate D2E/DX2                !
 ! A53   A(27,25,28)           109.6766         estimate D2E/DX2                !
 ! A54   A(25,28,29)           109.5594         estimate D2E/DX2                !
 ! A55   A(25,28,30)           109.6476         estimate D2E/DX2                !
 ! A56   A(25,28,31)           107.5065         estimate D2E/DX2                !
 ! A57   A(29,28,30)           107.858          estimate D2E/DX2                !
 ! A58   A(29,28,31)           111.1612         estimate D2E/DX2                !
 ! A59   A(30,28,31)           111.1014         estimate D2E/DX2                !
 ! A60   A(28,31,32)           113.4558         estimate D2E/DX2                !
 ! A61   A(31,32,33)           110.9613         estimate D2E/DX2                !
 ! A62   A(31,32,34)           110.9372         estimate D2E/DX2                !
 ! A63   A(31,32,35)           107.6141         estimate D2E/DX2                !
 ! A64   A(33,32,34)           107.9558         estimate D2E/DX2                !
 ! A65   A(33,32,35)           109.6664         estimate D2E/DX2                !
 ! A66   A(34,32,35)           109.703          estimate D2E/DX2                !
 ! A67   A(32,35,36)           109.6487         estimate D2E/DX2                !
 ! A68   A(32,35,37)           109.7094         estimate D2E/DX2                !
 ! A69   A(32,35,38)           107.5856         estimate D2E/DX2                !
 ! A70   A(36,35,37)           107.7134         estimate D2E/DX2                !
 ! A71   A(36,35,38)           111.0581         estimate D2E/DX2                !
 ! A72   A(37,35,38)           111.1239         estimate D2E/DX2                !
 ! A73   A(35,38,39)           113.0122         estimate D2E/DX2                !
 ! A74   A(38,39,40)           111.6176         estimate D2E/DX2                !
 ! A75   A(38,39,41)           107.2359         estimate D2E/DX2                !
 ! A76   A(38,39,42)           111.6134         estimate D2E/DX2                !
 ! A77   A(40,39,41)           108.9499         estimate D2E/DX2                !
 ! A78   A(40,39,42)           108.4069         estimate D2E/DX2                !
 ! A79   A(41,39,42)           108.9544         estimate D2E/DX2                !
 ! A80   A(13,43,44)           101.4709         estimate D2E/DX2                !
 ! A81   A(13,43,45)           119.2382         estimate D2E/DX2                !
 ! A82   A(13,43,46)           104.017          estimate D2E/DX2                !
 ! A83   A(44,43,45)           108.8027         estimate D2E/DX2                !
 ! A84   A(44,43,46)           101.4882         estimate D2E/DX2                !
 ! A85   A(45,43,46)           119.0821         estimate D2E/DX2                !
 ! A86   A(43,46,47)           105.4373         estimate D2E/DX2                !
 ! A87   A(43,46,48)           116.8596         estimate D2E/DX2                !
 ! A88   A(43,46,49)           105.8952         estimate D2E/DX2                !
 ! A89   A(47,46,48)           108.7772         estimate D2E/DX2                !
 ! A90   A(47,46,49)           109.8247         estimate D2E/DX2                !
 ! A91   A(48,46,49)           109.8402         estimate D2E/DX2                !
 ! A92   A(46,49,50)           109.8205         estimate D2E/DX2                !
 ! A93   A(46,49,51)           109.8322         estimate D2E/DX2                !
 ! A94   A(46,49,52)           106.8009         estimate D2E/DX2                !
 ! A95   A(50,49,51)           108.2305         estimate D2E/DX2                !
 ! A96   A(50,49,52)           111.106          estimate D2E/DX2                !
 ! A97   A(51,49,52)           111.0477         estimate D2E/DX2                !
 ! A98   A(49,52,53)           113.5375         estimate D2E/DX2                !
 ! A99   A(52,53,54)           110.9667         estimate D2E/DX2                !
 ! A100  A(52,53,55)           110.8819         estimate D2E/DX2                !
 ! A101  A(52,53,56)           107.5929         estimate D2E/DX2                !
 ! A102  A(54,53,55)           107.9789         estimate D2E/DX2                !
 ! A103  A(54,53,56)           109.7204         estimate D2E/DX2                !
 ! A104  A(55,53,56)           109.6982         estimate D2E/DX2                !
 ! A105  A(53,56,57)           109.7312         estimate D2E/DX2                !
 ! A106  A(53,56,58)           109.7196         estimate D2E/DX2                !
 ! A107  A(53,56,59)           107.4859         estimate D2E/DX2                !
 ! A108  A(57,56,58)           107.7972         estimate D2E/DX2                !
 ! A109  A(57,56,59)           111.0492         estimate D2E/DX2                !
 ! A110  A(58,56,59)           111.0579         estimate D2E/DX2                !
 ! A111  A(56,59,60)           113.5132         estimate D2E/DX2                !
 ! A112  A(59,60,61)           110.8846         estimate D2E/DX2                !
 ! A113  A(59,60,62)           110.9746         estimate D2E/DX2                !
 ! A114  A(59,60,63)           107.6095         estimate D2E/DX2                !
 ! A115  A(61,60,62)           107.8783         estimate D2E/DX2                !
 ! A116  A(61,60,63)           109.7251         estimate D2E/DX2                !
 ! A117  A(62,60,63)           109.7691         estimate D2E/DX2                !
 ! A118  A(60,63,64)           109.5988         estimate D2E/DX2                !
 ! A119  A(60,63,65)           109.6566         estimate D2E/DX2                !
 ! A120  A(60,63,66)           107.4725         estimate D2E/DX2                !
 ! A121  A(64,63,65)           107.8487         estimate D2E/DX2                !
 ! A122  A(64,63,66)           111.1026         estimate D2E/DX2                !
 ! A123  A(65,63,66)           111.1562         estimate D2E/DX2                !
 ! A124  A(63,66,67)           112.9842         estimate D2E/DX2                !
 ! A125  A(66,67,68)           111.6152         estimate D2E/DX2                !
 ! A126  A(66,67,69)           107.2762         estimate D2E/DX2                !
 ! A127  A(66,67,70)           111.6025         estimate D2E/DX2                !
 ! A128  A(68,67,69)           108.9502         estimate D2E/DX2                !
 ! A129  A(68,67,70)           108.3789         estimate D2E/DX2                !
 ! A130  A(69,67,70)           108.9559         estimate D2E/DX2                !
 ! D1    D(5,1,2,3)             -0.0166         estimate D2E/DX2                !
 ! D2    D(5,1,2,6)            179.9495         estimate D2E/DX2                !
 ! D3    D(8,1,2,3)            179.9736         estimate D2E/DX2                !
 ! D4    D(8,1,2,6)             -0.0602         estimate D2E/DX2                !
 ! D5    D(2,1,5,4)              0.0061         estimate D2E/DX2                !
 ! D6    D(8,1,5,4)           -179.9848         estimate D2E/DX2                !
 ! D7    D(2,1,8,9)            180.0            estimate D2E/DX2                !
 ! D8    D(2,1,8,12)             0.0496         estimate D2E/DX2                !
 ! D9    D(5,1,8,9)             -0.0109         estimate D2E/DX2                !
 ! D10   D(5,1,8,12)          -179.9613         estimate D2E/DX2                !
 ! D11   D(1,2,3,4)              0.0217         estimate D2E/DX2                !
 ! D12   D(1,2,3,7)            179.909          estimate D2E/DX2                !
 ! D13   D(6,2,3,4)           -179.9418         estimate D2E/DX2                !
 ! D14   D(6,2,3,7)             -0.0545         estimate D2E/DX2                !
 ! D15   D(1,2,6,15)           171.1233         estimate D2E/DX2                !
 ! D16   D(3,2,6,15)            -8.9149         estimate D2E/DX2                !
 ! D17   D(2,3,4,5)             -0.0164         estimate D2E/DX2                !
 ! D18   D(2,3,4,71)          -175.4759         estimate D2E/DX2                !
 ! D19   D(7,3,4,5)           -179.9047         estimate D2E/DX2                !
 ! D20   D(7,3,4,71)             4.6358         estimate D2E/DX2                !
 ! D21   D(3,4,5,1)              0.006          estimate D2E/DX2                !
 ! D22   D(71,4,5,1)           176.1299         estimate D2E/DX2                !
 ! D23   D(2,6,15,16)          -76.1011         estimate D2E/DX2                !
 ! D24   D(2,6,15,17)           40.407          estimate D2E/DX2                !
 ! D25   D(2,6,15,18)          175.237          estimate D2E/DX2                !
 ! D26   D(1,8,9,10)          -179.9737         estimate D2E/DX2                !
 ! D27   D(1,8,9,13)             0.0119         estimate D2E/DX2                !
 ! D28   D(12,8,9,10)           -0.018          estimate D2E/DX2                !
 ! D29   D(12,8,9,13)          179.9676         estimate D2E/DX2                !
 ! D30   D(1,8,12,11)          179.9983         estimate D2E/DX2                !
 ! D31   D(9,8,12,11)            0.0396         estimate D2E/DX2                !
 ! D32   D(8,9,10,11)           -0.0216         estimate D2E/DX2                !
 ! D33   D(8,9,10,14)         -179.9735         estimate D2E/DX2                !
 ! D34   D(13,9,10,11)         179.9939         estimate D2E/DX2                !
 ! D35   D(13,9,10,14)           0.042          estimate D2E/DX2                !
 ! D36   D(8,9,13,43)          168.3525         estimate D2E/DX2                !
 ! D37   D(10,9,13,43)         -11.6638         estimate D2E/DX2                !
 ! D38   D(9,10,11,12)           0.0522         estimate D2E/DX2                !
 ! D39   D(9,10,11,72)         175.1648         estimate D2E/DX2                !
 ! D40   D(14,10,11,12)       -179.9953         estimate D2E/DX2                !
 ! D41   D(14,10,11,72)         -4.8827         estimate D2E/DX2                !
 ! D42   D(10,11,12,8)          -0.0534         estimate D2E/DX2                !
 ! D43   D(72,11,12,8)        -175.288          estimate D2E/DX2                !
 ! D44   D(9,13,43,44)          67.197          estimate D2E/DX2                !
 ! D45   D(9,13,43,45)         -52.1755         estimate D2E/DX2                !
 ! D46   D(9,13,43,46)         172.2743         estimate D2E/DX2                !
 ! D47   D(6,15,18,19)         -44.7274         estimate D2E/DX2                !
 ! D48   D(6,15,18,20)          74.2728         estimate D2E/DX2                !
 ! D49   D(6,15,18,21)        -170.0798         estimate D2E/DX2                !
 ! D50   D(16,15,18,19)       -151.0772         estimate D2E/DX2                !
 ! D51   D(16,15,18,20)        -32.077          estimate D2E/DX2                !
 ! D52   D(16,15,18,21)         83.5704         estimate D2E/DX2                !
 ! D53   D(17,15,18,19)         91.9867         estimate D2E/DX2                !
 ! D54   D(17,15,18,20)       -149.0131         estimate D2E/DX2                !
 ! D55   D(17,15,18,21)        -33.3657         estimate D2E/DX2                !
 ! D56   D(15,18,21,22)        -50.4452         estimate D2E/DX2                !
 ! D57   D(15,18,21,23)         68.3081         estimate D2E/DX2                !
 ! D58   D(15,18,21,24)       -171.0731         estimate D2E/DX2                !
 ! D59   D(19,18,21,22)        179.9966         estimate D2E/DX2                !
 ! D60   D(19,18,21,23)        -61.25           estimate D2E/DX2                !
 ! D61   D(19,18,21,24)         59.3688         estimate D2E/DX2                !
 ! D62   D(20,18,21,22)         59.962          estimate D2E/DX2                !
 ! D63   D(20,18,21,23)        178.7153         estimate D2E/DX2                !
 ! D64   D(20,18,21,24)        -60.6659         estimate D2E/DX2                !
 ! D65   D(18,21,24,25)        179.9708         estimate D2E/DX2                !
 ! D66   D(22,21,24,25)         60.1225         estimate D2E/DX2                !
 ! D67   D(23,21,24,25)        -60.1672         estimate D2E/DX2                !
 ! D68   D(21,24,25,26)        -60.0327         estimate D2E/DX2                !
 ! D69   D(21,24,25,27)         60.0526         estimate D2E/DX2                !
 ! D70   D(21,24,25,28)       -179.9922         estimate D2E/DX2                !
 ! D71   D(24,25,28,29)         59.0803         estimate D2E/DX2                !
 ! D72   D(24,25,28,30)        -59.1101         estimate D2E/DX2                !
 ! D73   D(24,25,28,31)        179.9956         estimate D2E/DX2                !
 ! D74   D(26,25,28,29)        -61.677          estimate D2E/DX2                !
 ! D75   D(26,25,28,30)       -179.8673         estimate D2E/DX2                !
 ! D76   D(26,25,28,31)         59.2384         estimate D2E/DX2                !
 ! D77   D(27,25,28,29)        179.8215         estimate D2E/DX2                !
 ! D78   D(27,25,28,30)         61.6312         estimate D2E/DX2                !
 ! D79   D(27,25,28,31)        -59.2631         estimate D2E/DX2                !
 ! D80   D(25,28,31,32)       -179.9649         estimate D2E/DX2                !
 ! D81   D(29,28,31,32)        -60.0625         estimate D2E/DX2                !
 ! D82   D(30,28,31,32)         60.0598         estimate D2E/DX2                !
 ! D83   D(28,31,32,33)         59.9744         estimate D2E/DX2                !
 ! D84   D(28,31,32,34)        -60.0284         estimate D2E/DX2                !
 ! D85   D(28,31,32,35)        179.9577         estimate D2E/DX2                !
 ! D86   D(31,32,35,36)         59.0711         estimate D2E/DX2                !
 ! D87   D(31,32,35,37)        -59.0331         estimate D2E/DX2                !
 ! D88   D(31,32,35,38)        179.9614         estimate D2E/DX2                !
 ! D89   D(33,32,35,36)        179.8717         estimate D2E/DX2                !
 ! D90   D(33,32,35,37)         61.7675         estimate D2E/DX2                !
 ! D91   D(33,32,35,38)        -59.238          estimate D2E/DX2                !
 ! D92   D(34,32,35,36)        -61.7217         estimate D2E/DX2                !
 ! D93   D(34,32,35,37)       -179.8259         estimate D2E/DX2                !
 ! D94   D(34,32,35,38)         59.1686         estimate D2E/DX2                !
 ! D95   D(32,35,38,39)       -179.9446         estimate D2E/DX2                !
 ! D96   D(36,35,38,39)        -59.9439         estimate D2E/DX2                !
 ! D97   D(37,35,38,39)         59.9417         estimate D2E/DX2                !
 ! D98   D(35,38,39,40)         60.7374         estimate D2E/DX2                !
 ! D99   D(35,38,39,41)        179.9909         estimate D2E/DX2                !
 ! D100  D(35,38,39,42)        -60.7524         estimate D2E/DX2                !
 ! D101  D(13,43,46,47)         89.0055         estimate D2E/DX2                !
 ! D102  D(13,43,46,48)        -31.9366         estimate D2E/DX2                !
 ! D103  D(13,43,46,49)       -154.6055         estimate D2E/DX2                !
 ! D104  D(44,43,46,47)       -165.9302         estimate D2E/DX2                !
 ! D105  D(44,43,46,48)         73.1277         estimate D2E/DX2                !
 ! D106  D(44,43,46,49)        -49.5413         estimate D2E/DX2                !
 ! D107  D(45,43,46,47)        -46.6299         estimate D2E/DX2                !
 ! D108  D(45,43,46,48)       -167.572          estimate D2E/DX2                !
 ! D109  D(45,43,46,49)         69.759          estimate D2E/DX2                !
 ! D110  D(43,46,49,50)        -52.6291         estimate D2E/DX2                !
 ! D111  D(43,46,49,51)         66.2849         estimate D2E/DX2                !
 ! D112  D(43,46,49,52)       -173.2039         estimate D2E/DX2                !
 ! D113  D(47,46,49,50)         60.7531         estimate D2E/DX2                !
 ! D114  D(47,46,49,51)        179.6671         estimate D2E/DX2                !
 ! D115  D(47,46,49,52)        -59.8217         estimate D2E/DX2                !
 ! D116  D(48,46,49,50)       -179.6539         estimate D2E/DX2                !
 ! D117  D(48,46,49,51)        -60.7398         estimate D2E/DX2                !
 ! D118  D(48,46,49,52)         59.7714         estimate D2E/DX2                !
 ! D119  D(46,49,52,53)        179.9772         estimate D2E/DX2                !
 ! D120  D(50,49,52,53)         60.2279         estimate D2E/DX2                !
 ! D121  D(51,49,52,53)        -60.2925         estimate D2E/DX2                !
 ! D122  D(49,52,53,54)        -59.9669         estimate D2E/DX2                !
 ! D123  D(49,52,53,55)         60.0318         estimate D2E/DX2                !
 ! D124  D(49,52,53,56)        179.994          estimate D2E/DX2                !
 ! D125  D(52,53,56,57)         59.1821         estimate D2E/DX2                !
 ! D126  D(52,53,56,58)        -59.0798         estimate D2E/DX2                !
 ! D127  D(52,53,56,59)       -179.9507         estimate D2E/DX2                !
 ! D128  D(54,53,56,57)        -61.6436         estimate D2E/DX2                !
 ! D129  D(54,53,56,58)       -179.9055         estimate D2E/DX2                !
 ! D130  D(54,53,56,59)         59.2236         estimate D2E/DX2                !
 ! D131  D(55,53,56,57)        179.8922         estimate D2E/DX2                !
 ! D132  D(55,53,56,58)         61.6303         estimate D2E/DX2                !
 ! D133  D(55,53,56,59)        -59.2406         estimate D2E/DX2                !
 ! D134  D(53,56,59,60)       -179.9641         estimate D2E/DX2                !
 ! D135  D(57,56,59,60)        -59.9303         estimate D2E/DX2                !
 ! D136  D(58,56,59,60)         60.0112         estimate D2E/DX2                !
 ! D137  D(56,59,60,61)         59.9269         estimate D2E/DX2                !
 ! D138  D(56,59,60,62)        -59.9523         estimate D2E/DX2                !
 ! D139  D(56,59,60,63)        179.934          estimate D2E/DX2                !
 ! D140  D(59,60,63,64)         59.1115         estimate D2E/DX2                !
 ! D141  D(59,60,63,65)        -59.0963         estimate D2E/DX2                !
 ! D142  D(59,60,63,66)        179.9584         estimate D2E/DX2                !
 ! D143  D(61,60,63,64)        179.8506         estimate D2E/DX2                !
 ! D144  D(61,60,63,65)         61.6428         estimate D2E/DX2                !
 ! D145  D(61,60,63,66)        -59.3025         estimate D2E/DX2                !
 ! D146  D(62,60,63,64)        -61.7624         estimate D2E/DX2                !
 ! D147  D(62,60,63,65)       -179.9702         estimate D2E/DX2                !
 ! D148  D(62,60,63,66)         59.0845         estimate D2E/DX2                !
 ! D149  D(60,63,66,67)       -179.9663         estimate D2E/DX2                !
 ! D150  D(64,63,66,67)        -60.0713         estimate D2E/DX2                !
 ! D151  D(65,63,66,67)         60.0366         estimate D2E/DX2                !
 ! D152  D(63,66,67,68)         60.764          estimate D2E/DX2                !
 ! D153  D(63,66,67,69)       -179.958          estimate D2E/DX2                !
 ! D154  D(63,66,67,70)        -60.6804         estimate D2E/DX2                !
 --------------------------------------------------------------------------------
 Trust Radius=3.00D-01 FncErr=1.00D-07 GrdErr=1.00D-06 EigMax=2.50D+02 EigMin=1.00D-04
 Number of steps in this run=    367 maximum allowed number of steps=    432.
 GradGradGradGradGradGradGradGradGradGradGradGradGradGradGradGradGradGrad

 Leave Link  103 at Tue Mar 31 07:54:56 2020, MaxMem=  6710886400 cpu:               0.6 elap:               0.2
 (Enter /apps/gaussian/g16-a03/l202.exe)
 Stoichiometry    C24H38O8S2
 Framework group  C1[X(C24H38O8S2)]
 Deg. of freedom   210
 Full point group                 C1      NOp   1
 Largest Abelian subgroup         C1      NOp   1
 Largest concise Abelian subgroup C1      NOp   1
                         Standard orientation:                         
 ---------------------------------------------------------------------
 Center     Atomic      Atomic             Coordinates (Angstroms)
 Number     Number       Type             X           Y           Z
 ---------------------------------------------------------------------
      1          6           0        0.011668    0.751971   -0.298429
      2          6           0        1.211009    1.443120   -0.237444
      3          6           0        1.073168    2.859313   -0.280481
      4          6           0       -0.230433    3.246043   -0.373701
      5         16           0       -1.314166    1.901751   -0.411466
      6          8           0        2.382750    0.751352   -0.144230
      7          1           0        1.900077    3.552907   -0.242243
      8          6           0       -0.196655   -0.677993   -0.277992
      9          6           0       -1.395997   -1.369142   -0.338977
     10          6           0       -1.259151   -2.785406   -0.296004
     11          6           0        0.045446   -3.172065   -0.202720
     12         16           0        1.129182   -1.828744   -0.163928
     13          8           0       -2.567804   -0.677349   -0.431194
     14          1           0       -2.084992   -3.480898   -0.333120
     15          6           0        3.700700    1.297339   -0.250149
     16          1           0        3.731678    1.427157   -1.311045
     17          1           0        3.854351    2.241052    0.229350
     18          6           0        4.940177    0.292457    0.012889
     19          1           0        4.865163   -0.360382    0.857558
     20          1           0        4.938174   -0.286232   -0.886867
     21          6           0        6.229869    1.086971    0.100302
     22          1           0        6.313775    1.759888   -0.764337
     23          1           0        6.229573    1.701931    1.011016
     24          8           0        7.288395    0.148433    0.120085
     25          6           0        8.570672    0.744639    0.200004
     26          1           0        8.751793    1.403386   -0.660838
     27          1           0        8.667591    1.345428    1.114515
     28          6           0        9.597436   -0.374849    0.212244
     29          1           0        9.496606   -0.976920   -0.702493
     30          1           0        9.414461   -1.034760    1.071990
     31          8           0       10.876658    0.222140    0.291940
     32          6           0       11.936245   -0.716351    0.310791
     33          1           0       11.932494   -1.331571   -0.599183
     34          1           0       11.849353   -1.389483    1.175237
     35          6           0       13.236345    0.060780    0.396326
     36          1           0       13.238826    0.678946    1.307143
     37          1           0       13.321966    0.736857   -0.467276
     38          8           0       14.293805   -0.876832    0.416016
     39          6           0       15.567359   -0.271199    0.496119
     40          1           0       15.675511    0.324442    1.413510
     41          1           0       16.306334   -1.072868    0.505283
     42          1           0       15.760044    0.382273   -0.366830
     43          6           0       -3.691111   -1.362241   -0.727901
     44          1           0       -3.816743   -1.974845    0.171541
     45          1           0       -3.702162   -2.017108   -1.605272
     46          6           0       -4.869630   -0.277560   -0.544806
     47          1           0       -4.972153    0.209525   -1.521354
     48          1           0       -4.718931    0.492966    0.219592
     49          6           0       -6.123610   -1.074662   -0.232789
     50          1           0       -6.270972   -1.850932   -0.995818
     51          1           0       -6.018613   -1.567612    0.743069
     52          8           0       -7.200514   -0.156642   -0.225201
     53          6           0       -8.452466   -0.756021    0.053867
     54          1           0       -8.697890   -1.521678   -0.695881
     55          1           0       -8.444403   -1.238338    1.041075
     56          6           0       -9.501861    0.340442    0.028680
     57          1           0       -9.509068    0.824824   -0.958523
     58          1           0       -9.255446    1.107142    0.777465
     59          8           0      -10.751750   -0.260763    0.308934
     60          6           0      -11.830575    0.656117    0.316424
     61          1           0      -11.930671    1.152364   -0.661198
     62          1           0      -11.679241    1.435587    1.076627
     63          6           0      -13.094628   -0.124701    0.626358
     64          1           0      -12.991344   -0.621782    1.602207
     65          1           0      -13.243905   -0.904054   -0.134715
     66          8           0      -14.169541    0.793461    0.634075
     67          6           0      -15.412835    0.184681    0.913955
     68          1           0      -15.416469   -0.292310    1.905265
     69          1           0      -16.169151    0.969837    0.896040
     70          1           0      -15.669559   -0.575802    0.162324
     71          1           0       -0.658217    4.216656   -0.488825
     72          1           0        0.379077   -4.194186   -0.081505
 ---------------------------------------------------------------------
 Rotational constants (GHZ):           0.4703654           0.0143644           0.0140149
 Leave Link  202 at Tue Mar 31 07:54:56 2020, MaxMem=  6710886400 cpu:               0.1 elap:               0.1
 (Enter /apps/gaussian/g16-a03/l301.exe)
 Standard basis: 6-311G(d,p) (5D, 7F)
 Ernie: Thresh=  0.10000D-02 Tol=  0.10000D-05 Strict=F.
 There are   890 symmetry adapted cartesian basis functions of A   symmetry.
 There are   856 symmetry adapted basis functions of A   symmetry.
   856 basis functions,  1420 primitive gaussians,   890 cartesian basis functions
   139 alpha electrons      139 beta electrons
       nuclear repulsion energy      3449.8982895791 Hartrees.
 IExCor=  402 DFT=T Ex+Corr=B3LYP ExCW=0 ScaHFX=  0.200000
 ScaDFX=  0.800000  0.720000  1.000000  0.810000 ScalE2=  1.000000  1.000000
 IRadAn=      5 IRanWt=     -1 IRanGd=            0 ICorTp=0 IEmpDi=  4
 NAtoms=   72 NActive=   72 NUniq=   72 SFac= 1.00D+00 NAtFMM=   60 NAOKFM=T Big=T
 Integral buffers will be    131072 words long.
 Raffenetti 2 integral format.
 Two-electron integral symmetry is turned on.
 Leave Link  301 at Tue Mar 31 07:54:57 2020, MaxMem=  6710886400 cpu:               0.7 elap:               0.2
 (Enter /apps/gaussian/g16-a03/l302.exe)
 NPDir=0 NMtPBC=     1 NCelOv=     1 NCel=       1 NClECP=     1 NCelD=      1
         NCelK=      1 NCelE2=     1 NClLst=     1 CellRange=     0.0.
 One-electron integrals computed using PRISM.
 One-electron integral symmetry used in STVInt
 NBasis=   856 RedAO= T EigKep=  2.98D-04  NBF=   856
 NBsUse=   856 1.00D-06 EigRej= -1.00D+00 NBFU=   856
 Precomputing XC quadrature grid using
 IXCGrd= 4 IRadAn=           5 IRanWt=          -1 IRanGd=           0 AccXCQ= 0.00D+00.
 Generated NRdTot=       0 NPtTot=           0 NUsed=           0 NTot=          32
 NSgBfM=   582   581   581   581   582 MxSgAt=    72 MxSgA2=    72.
 Leave Link  302 at Tue Mar 31 07:54:59 2020, MaxMem=  6710886400 cpu:              15.5 elap:               2.0
 (Enter /apps/gaussian/g16-a03/l303.exe)
 DipDrv:  MaxL=1.
 Leave Link  303 at Tue Mar 31 07:55:02 2020, MaxMem=  6710886400 cpu:               1.1 elap:               0.2
 (Enter /apps/gaussian/g16-a03/l401.exe)
 ExpMin= 7.71D-02 ExpMax= 9.34D+04 ExpMxC= 3.17D+03 IAcc=3 IRadAn=         5 AccDes= 0.00D+00
 Harris functional with IExCor=  402 and IRadAn=       5 diagonalized for initial guess.
 HarFok:  IExCor=  402 AccDes= 0.00D+00 IRadAn=         5 IDoV= 1 UseB2=F ITyADJ=14
 ICtDFT=  3500011 ScaDFX=  1.000000  1.000000  1.000000  1.000000
 FoFCou: FMM=F IPFlag=           0 FMFlag=      100000 FMFlg1=        2001
         NFxFlg=           0 DoJE=T BraDBF=F KetDBF=T FulRan=T
         wScrn=  0.000000 ICntrl=       500 IOpCl=  0 I1Cent=   200000004 NGrid=           0
         NMat0=    1 NMatS0=      1 NMatT0=    0 NMatD0=    1 NMtDS0=    0 NMtDT0=    0
 Petite list used in FoFCou.
 Harris En= -2335.86795182833    
 JPrj=0 DoOrth=F DoCkMO=F.
 Leave Link  401 at Tue Mar 31 07:55:12 2020, MaxMem=  6710886400 cpu:              68.2 elap:               8.6
 (Enter /apps/gaussian/g16-a03/l502.exe)
 Integral symmetry usage will be decided dynamically.
 Closed shell SCF:
 Using DIIS extrapolation, IDIIS=  1040.
 NGot=  6710886400 LenX=  6709286144 LenY=  6708493154
 Requested convergence on RMS density matrix=1.00D-08 within 128 cycles.
 Requested convergence on MAX density matrix=1.00D-06.
 Requested convergence on             energy=1.00D-06.
 No special actions if energy rises.
 Fock matrices will be formed incrementally for  20 cycles.
 Integral accuracy reduced to 1.0D-05 until final iterations.

 Cycle   1  Pass 0  IDiag  1:
 FoFJK:  IHMeth= 1 ICntrl=       0 DoSepK=F KAlg= 0 I1Cent=           0 FoldK=F
 IRaf= 480000000 NMat=       1 IRICut=       1 DoRegI=T DoRafI=F ISym2E= 0 IDoP0=0 IntGTp=1.
 FoFCou: FMM=T IPFlag=           0 FMFlag=      100000 FMFlg1=        2001
         NFxFlg=           0 DoJE=F BraDBF=F KetDBF=F FulRan=T
         wScrn=  0.000000 ICntrl=         0 IOpCl=  0 I1Cent=           0 NGrid=           0
         NMat0=    1 NMatS0=      1 NMatT0=    0 NMatD0=    1 NMtDS0=    0 NMtDT0=    0
 Symmetry not used in FoFCou.
 FMM levels:  10  Number of levels for PrismC:   9
 E= -2334.99784069195    
 DIIS: error= 3.58D-02 at cycle   1 NSaved=   1.
 NSaved= 1 IEnMin= 1 EnMin= -2334.99784069195     IErMin= 1 ErrMin= 3.58D-02
 ErrMax= 3.58D-02  0.00D+00 EMaxC= 1.00D-01 BMatC= 1.02D+00 BMatP= 1.02D+00
 IDIUse=3 WtCom= 6.42D-01 WtEn= 3.58D-01
 Coeff-Com:  0.100D+01
 Coeff-En:   0.100D+01
 Coeff:      0.100D+01
 Gap=     0.090 Goal=   None    Shift=    0.000
 GapD=    0.090 DampG=0.500 DampE=0.500 DampFc=0.2500 IDamp=-1.
 Damping current iteration by 2.50D-01
 RMSDP=2.29D-03 MaxDP=1.37D-01              OVMax= 2.47D-01

 Cycle   2  Pass 0  IDiag  1:
 RMSU=  5.71D-04    CP:  9.95D-01
 E= -2335.32376813446     Delta-E=       -0.325927442508 Rises=F Damp=T
 DIIS: error= 1.67D-02 at cycle   2 NSaved=   2.
 NSaved= 2 IEnMin= 2 EnMin= -2335.32376813446     IErMin= 2 ErrMin= 1.67D-02
 ErrMax= 1.67D-02  0.00D+00 EMaxC= 1.00D-01 BMatC= 2.62D-01 BMatP= 1.02D+00
 IDIUse=3 WtCom= 8.33D-01 WtEn= 1.67D-01
 Coeff-Com: -0.842D+00 0.184D+01
 Coeff-En:   0.000D+00 0.100D+01
 Coeff:     -0.701D+00 0.170D+01
 Gap=     0.213 Goal=   None    Shift=    0.000
 RMSDP=5.53D-04 MaxDP=3.33D-02 DE=-3.26D-01 OVMax= 2.36D-01

 Cycle   3  Pass 0  IDiag  1:
 RMSU=  4.84D-04    CP:  9.92D-01  1.47D+00
 E= -2335.86564808449     Delta-E=       -0.541879950029 Rises=F Damp=F
 DIIS: error= 5.72D-03 at cycle   3 NSaved=   3.
 NSaved= 3 IEnMin= 3 EnMin= -2335.86564808449     IErMin= 3 ErrMin= 5.72D-03
 ErrMax= 5.72D-03  0.00D+00 EMaxC= 1.00D-01 BMatC= 1.89D-02 BMatP= 2.62D-01
 IDIUse=3 WtCom= 9.43D-01 WtEn= 5.72D-02
 Coeff-Com: -0.275D+00 0.588D+00 0.687D+00
 Coeff-En:   0.000D+00 0.000D+00 0.100D+01
 Coeff:     -0.259D+00 0.555D+00 0.705D+00
 Gap=     0.144 Goal=   None    Shift=    0.000
 RMSDP=2.55D-04 MaxDP=2.97D-02 DE=-5.42D-01 OVMax= 6.16D-02

 Cycle   4  Pass 0  IDiag  1:
 RMSU=  1.63D-04    CP:  9.93D-01  1.55D+00  6.06D-01
 E= -2335.87456175156     Delta-E=       -0.008913667072 Rises=F Damp=F
 DIIS: error= 5.43D-03 at cycle   4 NSaved=   4.
 NSaved= 4 IEnMin= 4 EnMin= -2335.87456175156     IErMin= 4 ErrMin= 5.43D-03
 ErrMax= 5.43D-03  0.00D+00 EMaxC= 1.00D-01 BMatC= 9.93D-03 BMatP= 1.89D-02
 IDIUse=3 WtCom= 9.46D-01 WtEn= 5.43D-02
 Coeff-Com: -0.583D-01 0.126D+00 0.419D+00 0.513D+00
 Coeff-En:   0.000D+00 0.000D+00 0.352D+00 0.648D+00
 Coeff:     -0.551D-01 0.119D+00 0.416D+00 0.520D+00
 Gap=     0.144 Goal=   None    Shift=    0.000
 RMSDP=1.05D-04 MaxDP=7.23D-03 DE=-8.91D-03 OVMax= 2.43D-02

 Cycle   5  Pass 0  IDiag  1:
 RMSU=  6.17D-05    CP:  9.92D-01  1.53D+00  7.17D-01  6.09D-01
 E= -2335.88340218271     Delta-E=       -0.008840431149 Rises=F Damp=F
 DIIS: error= 1.31D-03 at cycle   5 NSaved=   5.
 NSaved= 5 IEnMin= 5 EnMin= -2335.88340218271     IErMin= 5 ErrMin= 1.31D-03
 ErrMax= 1.31D-03  0.00D+00 EMaxC= 1.00D-01 BMatC= 5.07D-04 BMatP= 9.93D-03
 IDIUse=3 WtCom= 9.87D-01 WtEn= 1.31D-02
 Coeff-Com: -0.849D-02 0.218D-01 0.175D+00 0.269D+00 0.544D+00
 Coeff-En:   0.000D+00 0.000D+00 0.000D+00 0.000D+00 0.100D+01
 Coeff:     -0.838D-02 0.215D-01 0.172D+00 0.265D+00 0.550D+00
 Gap=     0.145 Goal=   None    Shift=    0.000
 RMSDP=3.28D-05 MaxDP=2.72D-03 DE=-8.84D-03 OVMax= 9.15D-03

 Cycle   6  Pass 0  IDiag  1:
 RMSU=  1.83D-05    CP:  9.92D-01  1.53D+00  7.27D-01  6.52D-01  5.84D-01
 E= -2335.88376964456     Delta-E=       -0.000367461850 Rises=F Damp=F
 DIIS: error= 5.91D-04 at cycle   6 NSaved=   6.
 NSaved= 6 IEnMin= 6 EnMin= -2335.88376964456     IErMin= 6 ErrMin= 5.91D-04
 ErrMax= 5.91D-04  0.00D+00 EMaxC= 1.00D-01 BMatC= 1.17D-04 BMatP= 5.07D-04
 IDIUse=3 WtCom= 9.94D-01 WtEn= 5.91D-03
 Coeff-Com:  0.424D-02-0.602D-02 0.556D-01 0.100D+00 0.352D+00 0.493D+00
 Coeff-En:   0.000D+00 0.000D+00 0.000D+00 0.000D+00 0.205D+00 0.795D+00
 Coeff:      0.422D-02-0.598D-02 0.553D-01 0.997D-01 0.352D+00 0.495D+00
 Gap=     0.145 Goal=   None    Shift=    0.000
 RMSDP=1.42D-05 MaxDP=1.13D-03 DE=-3.67D-04 OVMax= 4.47D-03

 Cycle   7  Pass 0  IDiag  1:
 RMSU=  7.17D-06    CP:  9.92D-01  1.52D+00  7.32D-01  6.39D-01  6.87D-01
                    CP:  4.59D-01
 E= -2335.88387243492     Delta-E=       -0.000102790355 Rises=F Damp=F
 DIIS: error= 2.52D-04 at cycle   7 NSaved=   7.
 NSaved= 7 IEnMin= 7 EnMin= -2335.88387243492     IErMin= 7 ErrMin= 2.52D-04
 ErrMax= 2.52D-04  0.00D+00 EMaxC= 1.00D-01 BMatC= 1.32D-05 BMatP= 1.17D-04
 IDIUse=3 WtCom= 9.97D-01 WtEn= 2.52D-03
 Coeff-Com:  0.342D-02-0.540D-02 0.234D-01 0.441D-01 0.185D+00 0.324D+00
 Coeff-Com:  0.426D+00
 Coeff-En:   0.000D+00 0.000D+00 0.000D+00 0.000D+00 0.000D+00 0.684D-01
 Coeff-En:   0.932D+00
 Coeff:      0.341D-02-0.539D-02 0.234D-01 0.440D-01 0.184D+00 0.323D+00
 Coeff:      0.428D+00
 Gap=     0.145 Goal=   None    Shift=    0.000
 RMSDP=5.12D-06 MaxDP=3.73D-04 DE=-1.03D-04 OVMax= 1.69D-03

 Initial convergence to 1.0D-05 achieved.  Increase integral accuracy.
 Cycle   8  Pass 1  IDiag  1:
 E= -2335.88382424165     Delta-E=        0.000048193271 Rises=F Damp=F
 DIIS: error= 5.86D-05 at cycle   1 NSaved=   1.
 NSaved= 1 IEnMin= 1 EnMin= -2335.88382424165     IErMin= 1 ErrMin= 5.86D-05
 ErrMax= 5.86D-05  0.00D+00 EMaxC= 1.00D-01 BMatC= 2.12D-06 BMatP= 2.12D-06
 IDIUse=1 WtCom= 1.00D+00 WtEn= 0.00D+00
 Coeff-Com:  0.100D+01
 Coeff:      0.100D+01
 Gap=     0.145 Goal=   None    Shift=    0.000
 RMSDP=5.12D-06 MaxDP=3.73D-04 DE= 4.82D-05 OVMax= 9.05D-04

 Cycle   9  Pass 1  IDiag  1:
 RMSU=  2.02D-05    CP:  1.00D+00
 E= -2335.88382279738     Delta-E=        0.000001444265 Rises=F Damp=F
 DIIS: error= 1.34D-04 at cycle   2 NSaved=   2.
 NSaved= 2 IEnMin= 1 EnMin= -2335.88382424165     IErMin= 1 ErrMin= 5.86D-05
 ErrMax= 1.34D-04  0.00D+00 EMaxC= 1.00D-01 BMatC= 3.47D-06 BMatP= 2.12D-06
 IDIUse=3 WtCom= 4.64D-01 WtEn= 5.36D-01
 Coeff-Com:  0.577D+00 0.423D+00
 Coeff-En:   0.636D+00 0.364D+00
 Coeff:      0.609D+00 0.391D+00
 Gap=     0.145 Goal=   None    Shift=    0.000
 RMSDP=2.76D-06 MaxDP=2.06D-04 DE= 1.44D-06 OVMax= 9.16D-04

 Cycle  10  Pass 1  IDiag  1:
 RMSU=  2.75D-06    CP:  1.00D+00  9.87D-01
 E= -2335.88382611349     Delta-E=       -0.000003316110 Rises=F Damp=F
 DIIS: error= 4.29D-05 at cycle   3 NSaved=   3.
 NSaved= 3 IEnMin= 3 EnMin= -2335.88382611349     IErMin= 3 ErrMin= 4.29D-05
 ErrMax= 4.29D-05  0.00D+00 EMaxC= 1.00D-01 BMatC= 3.36D-07 BMatP= 2.12D-06
 IDIUse=1 WtCom= 1.00D+00 WtEn= 0.00D+00
 Coeff-Com:  0.583D-01 0.233D+00 0.709D+00
 Coeff:      0.583D-01 0.233D+00 0.709D+00
 Gap=     0.145 Goal=   None    Shift=    0.000
 RMSDP=9.26D-07 MaxDP=7.18D-05 DE=-3.32D-06 OVMax= 2.82D-04

 Cycle  11  Pass 1  IDiag  1:
 RMSU=  4.77D-07    CP:  1.00D+00  1.00D+00  7.29D-01
 E= -2335.88382638603     Delta-E=       -0.000000272538 Rises=F Damp=F
 DIIS: error= 1.61D-05 at cycle   4 NSaved=   4.
 NSaved= 4 IEnMin= 4 EnMin= -2335.88382638603     IErMin= 4 ErrMin= 1.61D-05
 ErrMax= 1.61D-05  0.00D+00 EMaxC= 1.00D-01 BMatC= 9.44D-08 BMatP= 3.36D-07
 IDIUse=1 WtCom= 1.00D+00 WtEn= 0.00D+00
 Coeff-Com: -0.129D-02 0.127D+00 0.469D+00 0.405D+00
 Coeff:     -0.129D-02 0.127D+00 0.469D+00 0.405D+00
 Gap=     0.145 Goal=   None    Shift=    0.000
 RMSDP=3.24D-07 MaxDP=2.79D-05 DE=-2.73D-07 OVMax= 9.01D-05

 Cycle  12  Pass 1  IDiag  1:
 RMSU=  1.06D-07    CP:  1.00D+00  1.00D+00  7.76D-01  4.19D-01
 E= -2335.88382647417     Delta-E=       -0.000000088141 Rises=F Damp=F
 DIIS: error= 2.02D-06 at cycle   5 NSaved=   5.
 NSaved= 5 IEnMin= 5 EnMin= -2335.88382647417     IErMin= 5 ErrMin= 2.02D-06
 ErrMax= 2.02D-06  0.00D+00 EMaxC= 1.00D-01 BMatC= 1.41D-09 BMatP= 9.44D-08
 IDIUse=1 WtCom= 1.00D+00 WtEn= 0.00D+00
 Coeff-Com: -0.243D-02 0.625D-01 0.233D+00 0.219D+00 0.488D+00
 Coeff:     -0.243D-02 0.625D-01 0.233D+00 0.219D+00 0.488D+00
 Gap=     0.145 Goal=   None    Shift=    0.000
 RMSDP=4.53D-08 MaxDP=3.63D-06 DE=-8.81D-08 OVMax= 1.01D-05

 Cycle  13  Pass 1  IDiag  1:
 RMSU=  3.65D-08    CP:  1.00D+00  1.00D+00  7.76D-01  4.48D-01  7.88D-01
 E= -2335.88382647540     Delta-E=       -0.000000001229 Rises=F Damp=F
 DIIS: error= 4.18D-07 at cycle   6 NSaved=   6.
 NSaved= 6 IEnMin= 6 EnMin= -2335.88382647540     IErMin= 6 ErrMin= 4.18D-07
 ErrMax= 4.18D-07  0.00D+00 EMaxC= 1.00D-01 BMatC= 1.05D-10 BMatP= 1.41D-09
 IDIUse=1 WtCom= 1.00D+00 WtEn= 0.00D+00
 Coeff-Com: -0.118D-02 0.234D-01 0.865D-01 0.846D-01 0.262D+00 0.545D+00
 Coeff:     -0.118D-02 0.234D-01 0.865D-01 0.846D-01 0.262D+00 0.545D+00
 Gap=     0.145 Goal=   None    Shift=    0.000
 RMSDP=1.56D-08 MaxDP=1.93D-06 DE=-1.23D-09 OVMax= 4.91D-06

 Cycle  14  Pass 1  IDiag  1:
 RMSU=  1.27D-08    CP:  1.00D+00  1.00D+00  7.75D-01  4.44D-01  7.85D-01
                    CP:  7.68D-01
 E= -2335.88382647550     Delta-E=       -0.000000000098 Rises=F Damp=F
 DIIS: error= 1.24D-07 at cycle   7 NSaved=   7.
 NSaved= 7 IEnMin= 7 EnMin= -2335.88382647550     IErMin= 7 ErrMin= 1.24D-07
 ErrMax= 1.24D-07  0.00D+00 EMaxC= 1.00D-01 BMatC= 7.47D-12 BMatP= 1.05D-10
 IDIUse=1 WtCom= 1.00D+00 WtEn= 0.00D+00
 Coeff-Com: -0.160D-03 0.162D-02 0.489D-02 0.642D-02 0.410D-01 0.235D+00
 Coeff-Com:  0.711D+00
 Coeff:     -0.160D-03 0.162D-02 0.489D-02 0.642D-02 0.410D-01 0.235D+00
 Coeff:      0.711D+00
 Gap=     0.145 Goal=   None    Shift=    0.000
 RMSDP=4.74D-09 MaxDP=4.14D-07 DE=-9.82D-11 OVMax= 1.03D-06

 SCF Done:  E(RB3LYP) =  -2335.88382648     A.U. after   14 cycles
            NFock= 14  Conv=0.47D-08     -V/T= 2.0029
 KE= 2.329181735263D+03 PE=-1.239104884829D+04 EE= 4.276084996973D+03
 Leave Link  502 at Tue Mar 31 07:58:35 2020, MaxMem=  6710886400 cpu:            1580.6 elap:             201.3
 (Enter /apps/gaussian/g16-a03/l601.exe)
 Copying SCF densities to generalized density rwf, IOpCl= 0 IROHF=0.

 **********************************************************************

            Population analysis using the SCF density.

 **********************************************************************

 Orbital symmetries:
       Occupied  (A) (A) (A) (A) (A) (A) (A) (A) (A) (A) (A) (A)
                 (A) (A) (A) (A) (A) (A) (A) (A) (A) (A) (A) (A)
                 (A) (A) (A) (A) (A) (A) (A) (A) (A) (A) (A) (A)
                 (A) (A) (A) (A) (A) (A) (A) (A) (A) (A) (A) (A)
                 (A) (A) (A) (A) (A) (A) (A) (A) (A) (A) (A) (A)
                 (A) (A) (A) (A) (A) (A) (A) (A) (A) (A) (A) (A)
                 (A) (A) (A) (A) (A) (A) (A) (A) (A) (A) (A) (A)
                 (A) (A) (A) (A) (A) (A) (A) (A) (A) (A) (A) (A)
                 (A) (A) (A) (A) (A) (A) (A) (A) (A) (A) (A) (A)
                 (A) (A) (A) (A) (A) (A) (A) (A) (A) (A) (A) (A)
                 (A) (A) (A) (A) (A) (A) (A) (A) (A) (A) (A) (A)
                 (A) (A) (A) (A) (A) (A) (A)
       Virtual   (A) (A) (A) (A) (A) (A) (A) (A) (A) (A) (A) (A)
                 (A) (A) (A) (A) (A) (A) (A) (A) (A) (A) (A) (A)
                 (A) (A) (A) (A) (A) (A) (A) (A) (A) (A) (A) (A)
                 (A) (A) (A) (A) (A) (A) (A) (A) (A) (A) (A) (A)
                 (A) (A) (A) (A) (A) (A) (A) (A) (A) (A) (A) (A)
                 (A) (A) (A) (A) (A) (A) (A) (A) (A) (A) (A) (A)
                 (A) (A) (A) (A) (A) (A) (A) (A) (A) (A) (A) (A)
                 (A) (A) (A) (A) (A) (A) (A) (A) (A) (A) (A) (A)
                 (A) (A) (A) (A) (A) (A) (A) (A) (A) (A) (A) (A)
                 (A) (A) (A) (A) (A) (A) (A) (A) (A) (A) (A) (A)
                 (A) (A) (A) (A) (A) (A) (A) (A) (A) (A) (A) (A)
                 (A) (A) (A) (A) (A) (A) (A) (A) (A) (A) (A) (A)
                 (A) (A) (A) (A) (A) (A) (A) (A) (A) (A) (A) (A)
                 (A) (A) (A) (A) (A) (A) (A) (A) (A) (A) (A) (A)
                 (A) (A) (A) (A) (A) (A) (A) (A) (A) (A) (A) (A)
                 (A) (A) (A) (A) (A) (A) (A) (A) (A) (A) (A) (A)
                 (A) (A) (A) (A) (A) (A) (A) (A) (A) (A) (A) (A)
                 (A) (A) (A) (A) (A) (A) (A) (A) (A) (A) (A) (A)
                 (A) (A) (A) (A) (A) (A) (A) (A) (A) (A) (A) (A)
                 (A) (A) (A) (A) (A) (A) (A) (A) (A) (A) (A) (A)
                 (A) (A) (A) (A) (A) (A) (A) (A) (A) (A) (A) (A)
                 (A) (A) (A) (A) (A) (A) (A) (A) (A) (A) (A) (A)
                 (A) (A) (A) (A) (A) (A) (A) (A) (A) (A) (A) (A)
                 (A) (A) (A) (A) (A) (A) (A) (A) (A) (A) (A) (A)
                 (A) (A) (A) (A) (A) (A) (A) (A) (A) (A) (A) (A)
                 (A) (A) (A) (A) (A) (A) (A) (A) (A) (A) (A) (A)
                 (A) (A) (A) (A) (A) (A) (A) (A) (A) (A) (A) (A)
                 (A) (A) (A) (A) (A) (A) (A) (A) (A) (A) (A) (A)
                 (A) (A) (A) (A) (A) (A) (A) (A) (A) (A) (A) (A)
                 (A) (A) (A) (A) (A) (A) (A) (A) (A) (A) (A) (A)
                 (A) (A) (A) (A) (A) (A) (A) (A) (A) (A) (A) (A)
                 (A) (A) (A) (A) (A) (A) (A) (A) (A) (A) (A) (A)
                 (A) (A) (A) (A) (A) (A) (A) (A) (A) (A) (A) (A)
                 (A) (A) (A) (A) (A) (A) (A) (A) (A) (A) (A) (A)
                 (A) (A) (A) (A) (A) (A) (A) (A) (A) (A) (A) (A)
                 (A) (A) (A) (A) (A) (A) (A) (A) (A) (A) (A) (A)
                 (A) (A) (A) (A) (A) (A) (A) (A) (A) (A) (A) (A)
                 (A) (A) (A) (A) (A) (A) (A) (A) (A) (A) (A) (A)
                 (A) (A) (A) (A) (A) (A) (A) (A) (A) (A) (A) (A)
                 (A) (A) (A) (A) (A) (A) (A) (A) (A) (A) (A) (A)
                 (A) (A) (A) (A) (A) (A) (A) (A) (A) (A) (A) (A)
                 (A) (A) (A) (A) (A) (A) (A) (A) (A) (A) (A) (A)
                 (A) (A) (A) (A) (A) (A) (A) (A) (A) (A) (A) (A)
                 (A) (A) (A) (A) (A) (A) (A) (A) (A) (A) (A) (A)
                 (A) (A) (A) (A) (A) (A) (A) (A) (A) (A) (A) (A)
                 (A) (A) (A) (A) (A) (A) (A) (A) (A) (A) (A) (A)
                 (A) (A) (A) (A) (A) (A) (A) (A) (A) (A) (A) (A)
                 (A) (A) (A) (A) (A) (A) (A) (A) (A) (A) (A) (A)
                 (A) (A) (A) (A) (A) (A) (A) (A) (A) (A) (A) (A)
                 (A) (A) (A) (A) (A) (A) (A) (A) (A) (A) (A) (A)
                 (A) (A) (A) (A) (A) (A) (A) (A) (A) (A) (A) (A)
                 (A) (A) (A) (A) (A) (A) (A) (A) (A) (A) (A) (A)
                 (A) (A) (A) (A) (A) (A) (A) (A) (A) (A) (A) (A)
                 (A) (A) (A) (A) (A) (A) (A) (A) (A) (A) (A) (A)
                 (A) (A) (A) (A) (A) (A) (A) (A) (A) (A) (A) (A)
                 (A) (A) (A) (A) (A) (A) (A) (A) (A) (A) (A) (A)
                 (A) (A) (A) (A) (A) (A) (A) (A) (A) (A) (A) (A)
                 (A) (A) (A) (A) (A) (A) (A) (A) (A) (A) (A) (A)
                 (A) (A) (A) (A) (A) (A) (A) (A) (A) (A) (A) (A)
                 (A) (A) (A) (A) (A) (A) (A) (A) (A)
 The electronic state is 1-A.
 Alpha  occ. eigenvalues --  -88.86857 -88.86699 -19.14998 -19.14797 -19.12958
 Alpha  occ. eigenvalues --  -19.12667 -19.12362 -19.12278 -19.12228 -19.12125
 Alpha  occ. eigenvalues --  -10.23692 -10.23333 -10.22957 -10.22796 -10.22742
 Alpha  occ. eigenvalues --  -10.22065 -10.21970 -10.21855 -10.21791 -10.21693
 Alpha  occ. eigenvalues --  -10.21614 -10.21586 -10.21550 -10.21508 -10.21435
 Alpha  occ. eigenvalues --  -10.21311 -10.20116 -10.20038 -10.19169 -10.19141
 Alpha  occ. eigenvalues --  -10.17991 -10.17393 -10.17387 -10.17265  -7.95424
 Alpha  occ. eigenvalues --   -7.95291  -5.91734  -5.91600  -5.91347  -5.91213
 Alpha  occ. eigenvalues --   -5.90998  -5.90863  -1.09051  -1.06368  -1.05089
 Alpha  occ. eigenvalues --   -1.04641  -1.04371  -1.03930  -1.03621  -1.03326
 Alpha  occ. eigenvalues --   -0.88707  -0.86909  -0.80551  -0.79890  -0.77988
 Alpha  occ. eigenvalues --   -0.77706  -0.76447  -0.74799  -0.74113  -0.72434
 Alpha  occ. eigenvalues --   -0.71947  -0.70754  -0.68247  -0.67312  -0.66118
 Alpha  occ. eigenvalues --   -0.65420  -0.61646  -0.61416  -0.61127  -0.60995
 Alpha  occ. eigenvalues --   -0.60928  -0.60577  -0.59500  -0.57291  -0.55830
 Alpha  occ. eigenvalues --   -0.55494  -0.53357  -0.52044  -0.51809  -0.51511
 Alpha  occ. eigenvalues --   -0.51066  -0.50338  -0.50188  -0.49240  -0.49036
 Alpha  occ. eigenvalues --   -0.48646  -0.48521  -0.48084  -0.47485  -0.47171
 Alpha  occ. eigenvalues --   -0.46380  -0.46181  -0.45946  -0.45542  -0.45315
 Alpha  occ. eigenvalues --   -0.44863  -0.44385  -0.44031  -0.43892  -0.43592
 Alpha  occ. eigenvalues --   -0.43222  -0.42702  -0.41105  -0.40257  -0.39860
 Alpha  occ. eigenvalues --   -0.39603  -0.39157  -0.38972  -0.38533  -0.37686
 Alpha  occ. eigenvalues --   -0.37321  -0.36829  -0.36700  -0.35922  -0.35844
 Alpha  occ. eigenvalues --   -0.35624  -0.35260  -0.35068  -0.33735  -0.33519
 Alpha  occ. eigenvalues --   -0.33155  -0.32800  -0.32584  -0.32419  -0.32325
 Alpha  occ. eigenvalues --   -0.32221  -0.31762  -0.31419  -0.30195  -0.27296
 Alpha  occ. eigenvalues --   -0.27202  -0.26825  -0.26730  -0.26360  -0.26141
 Alpha  occ. eigenvalues --   -0.25885  -0.23541  -0.23117  -0.18124
 Alpha virt. eigenvalues --   -0.03598   0.01280   0.02569   0.02928   0.03636
 Alpha virt. eigenvalues --    0.03867   0.04467   0.04628   0.04997   0.05120
 Alpha virt. eigenvalues --    0.05232   0.05605   0.05979   0.06682   0.06861
 Alpha virt. eigenvalues --    0.06942   0.07144   0.07403   0.07844   0.08259
 Alpha virt. eigenvalues --    0.08319   0.08361   0.08456   0.08930   0.09180
 Alpha virt. eigenvalues --    0.09306   0.09904   0.10176   0.10306   0.10546
 Alpha virt. eigenvalues --    0.10799   0.10918   0.11130   0.11431   0.11967
 Alpha virt. eigenvalues --    0.12258   0.12471   0.12761   0.12874   0.12937
 Alpha virt. eigenvalues --    0.13431   0.13888   0.14337   0.14561   0.14758
 Alpha virt. eigenvalues --    0.15059   0.15305   0.15959   0.16040   0.16367
 Alpha virt. eigenvalues --    0.16819   0.17229   0.17520   0.18134   0.18231
 Alpha virt. eigenvalues --    0.18893   0.19836   0.19889   0.20230   0.20805
 Alpha virt. eigenvalues --    0.20916   0.20991   0.21517   0.21822   0.22478
 Alpha virt. eigenvalues --    0.22830   0.22954   0.23075   0.24038   0.24774
 Alpha virt. eigenvalues --    0.25556   0.25968   0.26590   0.27506   0.28370
 Alpha virt. eigenvalues --    0.29144   0.29543   0.30360   0.30765   0.30802
 Alpha virt. eigenvalues --    0.30933   0.32012   0.32510   0.32538   0.32863
 Alpha virt. eigenvalues --    0.33592   0.33934   0.34084   0.34155   0.34378
 Alpha virt. eigenvalues --    0.34592   0.35594   0.35894   0.36367   0.37071
 Alpha virt. eigenvalues --    0.37381   0.37452   0.38703   0.38991   0.40111
 Alpha virt. eigenvalues --    0.40755   0.41274   0.41892   0.42038   0.42164
 Alpha virt. eigenvalues --    0.42602   0.43126   0.43406   0.43776   0.44059
 Alpha virt. eigenvalues --    0.44093   0.44367   0.44646   0.44770   0.44926
 Alpha virt. eigenvalues --    0.45042   0.45280   0.45551   0.45751   0.47190
 Alpha virt. eigenvalues --    0.47512   0.47943   0.48222   0.48763   0.49335
 Alpha virt. eigenvalues --    0.50075   0.50489   0.50862   0.50895   0.51031
 Alpha virt. eigenvalues --    0.51146   0.51259   0.51796   0.51867   0.52028
 Alpha virt. eigenvalues --    0.52220   0.52590   0.53531   0.53626   0.53739
 Alpha virt. eigenvalues --    0.53980   0.54474   0.54665   0.54854   0.55028
 Alpha virt. eigenvalues --    0.55181   0.55712   0.55837   0.56031   0.56292
 Alpha virt. eigenvalues --    0.56598   0.57005   0.57867   0.58042   0.58225
 Alpha virt. eigenvalues --    0.58346   0.58579   0.58958   0.59128   0.59541
 Alpha virt. eigenvalues --    0.59600   0.60148   0.60280   0.60515   0.60676
 Alpha virt. eigenvalues --    0.61081   0.61109   0.61352   0.61413   0.61565
 Alpha virt. eigenvalues --    0.61818   0.62059   0.62228   0.62400   0.62644
 Alpha virt. eigenvalues --    0.62991   0.63308   0.63810   0.64270   0.64592
 Alpha virt. eigenvalues --    0.64697   0.65254   0.65884   0.66196   0.66965
 Alpha virt. eigenvalues --    0.67232   0.67647   0.68710   0.68812   0.70527
 Alpha virt. eigenvalues --    0.71306   0.72066   0.72285   0.73018   0.73755
 Alpha virt. eigenvalues --    0.74572   0.75392   0.75746   0.76631   0.77278
 Alpha virt. eigenvalues --    0.78193   0.79130   0.79900   0.80369   0.80536
 Alpha virt. eigenvalues --    0.81069   0.82072   0.83682   0.84994   0.86498
 Alpha virt. eigenvalues --    0.87593   0.88006   0.88435   0.89113   0.89564
 Alpha virt. eigenvalues --    0.90086   0.90524   0.90983   0.91539   0.91657
 Alpha virt. eigenvalues --    0.92180   0.93671   0.93768   0.95196   0.95527
 Alpha virt. eigenvalues --    0.96422   0.96681   0.96888   0.97384   0.97633
 Alpha virt. eigenvalues --    0.98281   0.99098   1.00199   1.01012   1.01635
 Alpha virt. eigenvalues --    1.02239   1.02423   1.02917   1.03157   1.03427
 Alpha virt. eigenvalues --    1.03996   1.04555   1.04652   1.05594   1.06204
 Alpha virt. eigenvalues --    1.06270   1.06482   1.06732   1.07343   1.07493
 Alpha virt. eigenvalues --    1.08032   1.08336   1.08723   1.09147   1.09889
 Alpha virt. eigenvalues --    1.11116   1.11543   1.11968   1.12674   1.13207
 Alpha virt. eigenvalues --    1.14621   1.15067   1.16686   1.17299   1.20399
 Alpha virt. eigenvalues --    1.21326   1.21510   1.22085   1.24400   1.24529
 Alpha virt. eigenvalues --    1.24569   1.25368   1.25673   1.25993   1.26297
 Alpha virt. eigenvalues --    1.26374   1.28281   1.30088   1.30250   1.32046
 Alpha virt. eigenvalues --    1.32740   1.33178   1.34120   1.35616   1.37583
 Alpha virt. eigenvalues --    1.39020   1.40869   1.41000   1.41206   1.41594
 Alpha virt. eigenvalues --    1.43249   1.43812   1.43917   1.44731   1.44908
 Alpha virt. eigenvalues --    1.45117   1.45245   1.46002   1.46090   1.46541
 Alpha virt. eigenvalues --    1.46579   1.46886   1.46912   1.47151   1.47167
 Alpha virt. eigenvalues --    1.47406   1.47500   1.47959   1.48151   1.49017
 Alpha virt. eigenvalues --    1.49537   1.49937   1.50299   1.50456   1.50627
 Alpha virt. eigenvalues --    1.51423   1.51459   1.52026   1.52402   1.52917
 Alpha virt. eigenvalues --    1.53262   1.54409   1.54962   1.55272   1.56117
 Alpha virt. eigenvalues --    1.56293   1.56714   1.57058   1.57698   1.57750
 Alpha virt. eigenvalues --    1.58124   1.58562   1.58759   1.58940   1.59081
 Alpha virt. eigenvalues --    1.59181   1.59440   1.59610   1.59662   1.59823
 Alpha virt. eigenvalues --    1.60488   1.60835   1.61019   1.61663   1.62164
 Alpha virt. eigenvalues --    1.62628   1.62800   1.63023   1.63689   1.64278
 Alpha virt. eigenvalues --    1.64953   1.65224   1.65503   1.65679   1.65899
 Alpha virt. eigenvalues --    1.66077   1.66338   1.66899   1.67266   1.68276
 Alpha virt. eigenvalues --    1.68639   1.68984   1.69027   1.69120   1.70610
 Alpha virt. eigenvalues --    1.71552   1.72261   1.72850   1.73305   1.73595
 Alpha virt. eigenvalues --    1.73814   1.75221   1.75885   1.76516   1.76838
 Alpha virt. eigenvalues --    1.77202   1.77583   1.78916   1.79061   1.79510
 Alpha virt. eigenvalues --    1.80139   1.80617   1.81036   1.82178   1.82472
 Alpha virt. eigenvalues --    1.82703   1.83645   1.84415   1.84973   1.86298
 Alpha virt. eigenvalues --    1.87366   1.87556   1.87814   1.88978   1.89508
 Alpha virt. eigenvalues --    1.90227   1.91610   1.92163   1.92707   1.93855
 Alpha virt. eigenvalues --    1.94094   1.95585   1.96444   1.97477   1.97983
 Alpha virt. eigenvalues --    1.98430   1.98900   1.99793   2.00118   2.01054
[...]
 Alpha  occ. eigenvalues --   -0.32321  -0.32261  -0.32258  -0.31961  -0.27179
 Alpha  occ. eigenvalues --   -0.27033  -0.27016  -0.26540  -0.26535  -0.26023
 Alpha  occ. eigenvalues --   -0.26022  -0.23516  -0.23205  -0.18069
 Alpha virt. eigenvalues --   -0.03526   0.01371   0.02670   0.02894   0.03572
 Alpha virt. eigenvalues --    0.03663   0.04535   0.04544   0.05100   0.05117
 Alpha virt. eigenvalues --    0.05417   0.05464   0.06393   0.06639   0.06705
 Alpha virt. eigenvalues --    0.06967   0.07070   0.07285   0.08074   0.08125
 Alpha virt. eigenvalues --    0.08198   0.08325   0.08427   0.08964   0.09150
 Alpha virt. eigenvalues --    0.09325   0.10196   0.10268   0.10273   0.10575
 Alpha virt. eigenvalues --    0.10791   0.10934   0.11254   0.11728   0.12120
 Alpha virt. eigenvalues --    0.12196   0.12602   0.12614   0.12615   0.13011
 Alpha virt. eigenvalues --    0.13519   0.13844   0.13943   0.14288   0.14660
 Alpha virt. eigenvalues --    0.14869   0.15690   0.15752   0.16291   0.16502
 Alpha virt. eigenvalues --    0.16626   0.16645   0.17129   0.18623   0.19018
 Alpha virt. eigenvalues --    0.19537   0.19765   0.19982   0.20720   0.20850
 Alpha virt. eigenvalues --    0.20959   0.21348   0.21589   0.22050   0.22450
 Alpha virt. eigenvalues --    0.22922   0.23231   0.23461   0.24266   0.24804
 Alpha virt. eigenvalues --    0.25778   0.25933   0.26682   0.27057   0.28434
 Alpha virt. eigenvalues --    0.29099   0.29900   0.30862   0.30863   0.31112
 Alpha virt. eigenvalues --    0.31123   0.31539   0.31552   0.32647   0.32671
 Alpha virt. eigenvalues --    0.32712   0.33963   0.34023   0.34119   0.34159
 Alpha virt. eigenvalues --    0.34526   0.34900   0.35164   0.36108   0.36415
 Alpha virt. eigenvalues --    0.37199   0.37384   0.39302   0.39339   0.40216
 Alpha virt. eigenvalues --    0.41056   0.41573   0.42048   0.42226   0.42405
 Alpha virt. eigenvalues --    0.42638   0.43210   0.43308   0.43579   0.43957
 Alpha virt. eigenvalues --    0.44215   0.44478   0.44633   0.44769   0.44898
 Alpha virt. eigenvalues --    0.44973   0.45403   0.45598   0.46731   0.46747
 Alpha virt. eigenvalues --    0.47173   0.47801   0.48067   0.48208   0.49636
 Alpha virt. eigenvalues --    0.50052   0.50766   0.50930   0.50959   0.51006
 Alpha virt. eigenvalues --    0.51189   0.51344   0.51635   0.51977   0.52236
 Alpha virt. eigenvalues --    0.52369   0.52757   0.53470   0.53472   0.53616
 Alpha virt. eigenvalues --    0.54324   0.54415   0.54761   0.54771   0.54898
 Alpha virt. eigenvalues --    0.55072   0.55220   0.55897   0.55906   0.57011
 Alpha virt. eigenvalues --    0.57209   0.57222   0.57868   0.58178   0.58183
 Alpha virt. eigenvalues --    0.58239   0.58973   0.59046   0.59371   0.59802
 Alpha virt. eigenvalues --    0.59873   0.60122   0.60171   0.60206   0.60381
 Alpha virt. eigenvalues --    0.60629   0.60814   0.61299   0.61318   0.61674
 Alpha virt. eigenvalues --    0.61859   0.61979   0.62309   0.62517   0.62791
 Alpha virt. eigenvalues --    0.62815   0.63477   0.63800   0.63996   0.64360
 Alpha virt. eigenvalues --    0.64737   0.64992   0.65771   0.66031   0.67202
 Alpha virt. eigenvalues --    0.67224   0.67843   0.68537   0.68649   0.70804
 Alpha virt. eigenvalues --    0.71629   0.72119   0.72124   0.73087   0.74223
 Alpha virt. eigenvalues --    0.74897   0.75017   0.75560   0.76505   0.77155
 Alpha virt. eigenvalues --    0.77754   0.80157   0.80368   0.80532   0.80952
 Alpha virt. eigenvalues --    0.81774   0.84527   0.84868   0.86717   0.86854
 Alpha virt. eigenvalues --    0.87669   0.88311   0.89027   0.90010   0.90309
 Alpha virt. eigenvalues --    0.90593   0.91018   0.91039   0.92227   0.92904
 Alpha virt. eigenvalues --    0.93468   0.93707   0.94866   0.95327   0.95663
 Alpha virt. eigenvalues --    0.95674   0.97210   0.97299   0.97608   0.98661
 Alpha virt. eigenvalues --    0.98800   0.98890   0.99085   1.01115   1.01383
 Alpha virt. eigenvalues --    1.02451   1.02536   1.02694   1.03569   1.03752
 Alpha virt. eigenvalues --    1.04026   1.04728   1.04888   1.04975   1.06197
 Alpha virt. eigenvalues --    1.06285   1.06531   1.06939   1.06940   1.07666
 Alpha virt. eigenvalues --    1.07711   1.08424   1.08885   1.10083   1.10348
 Alpha virt. eigenvalues --    1.10711   1.12379   1.12723   1.12783   1.13200
 Alpha virt. eigenvalues --    1.14452   1.15688   1.16076   1.18833   1.19039
 Alpha virt. eigenvalues --    1.21590   1.21649   1.22223   1.23584   1.24087
 Alpha virt. eigenvalues --    1.24478   1.24510   1.24962   1.25085   1.25214
 Alpha virt. eigenvalues --    1.25964   1.26008   1.28315   1.29796   1.31542
 Alpha virt. eigenvalues --    1.31932   1.32766   1.34771   1.34800   1.36744
 Alpha virt. eigenvalues --    1.38532   1.40731   1.41103   1.41115   1.42427
 Alpha virt. eigenvalues --    1.43845   1.43849   1.43849   1.44756   1.45086
 Alpha virt. eigenvalues --    1.45257   1.45528   1.45624   1.46281   1.46350
 Alpha virt. eigenvalues --    1.46784   1.46786   1.47050   1.47053   1.47379
 Alpha virt. eigenvalues --    1.47390   1.47502   1.47660   1.47684   1.47821
 Alpha virt. eigenvalues --    1.50029   1.50141   1.50142   1.50201   1.50798
 Alpha virt. eigenvalues --    1.51005   1.51692   1.52083   1.52668   1.53343
 Alpha virt. eigenvalues --    1.54444   1.54449   1.55610   1.56003   1.56792
 Alpha virt. eigenvalues --    1.56899   1.57088   1.57178   1.57531   1.57930
 Alpha virt. eigenvalues --    1.57996   1.58526   1.58963   1.59104   1.59132
 Alpha virt. eigenvalues --    1.59318   1.59505   1.59579   1.59584   1.60078
 Alpha virt. eigenvalues --    1.60947   1.61125   1.61947   1.62592   1.62752
 Alpha virt. eigenvalues --    1.63044   1.63278   1.63785   1.63968   1.64975
 Alpha virt. eigenvalues --    1.65321   1.65601   1.66036   1.66194   1.66351
 Alpha virt. eigenvalues --    1.66453   1.66707   1.66766   1.66841   1.68807
 Alpha virt. eigenvalues --    1.68927   1.69031   1.69051   1.69196   1.69580
 Alpha virt. eigenvalues --    1.70097   1.71896   1.72386   1.72654   1.73374
 Alpha virt. eigenvalues --    1.73474   1.75703   1.76659   1.76755   1.77031
 Alpha virt. eigenvalues --    1.77447   1.77607   1.78308   1.78985   1.79310
 Alpha virt. eigenvalues --    1.79311   1.79491   1.80507   1.80597   1.81325
 Alpha virt. eigenvalues --    1.81357   1.82669   1.82680   1.83838   1.86208
 Alpha virt. eigenvalues --    1.86348   1.87335   1.87645   1.89998   1.90280
 Alpha virt. eigenvalues --    1.90896   1.91809   1.92489   1.93315   1.95493
 Alpha virt. eigenvalues --    1.95912   1.96109   1.96163   1.96305   1.97838
 Alpha virt. eigenvalues --    1.98145   1.98707   1.99572   1.99953   2.00174
 Alpha virt. eigenvalues --    2.01460   2.01499   2.01807   2.02932   2.03253
 Alpha virt. eigenvalues --    2.03492   2.03656   2.04663   2.04667   2.04711
 Alpha virt. eigenvalues --    2.04713   2.06949   2.07141   2.07253   2.07734
 Alpha virt. eigenvalues --    2.07808   2.09320   2.09906   2.09913   2.10221
 Alpha virt. eigenvalues --    2.10429   2.10576   2.10733   2.12292   2.13368
 Alpha virt. eigenvalues --    2.13951   2.15473   2.15484   2.15884   2.16387
 Alpha virt. eigenvalues --    2.17998   2.18893   2.19035   2.19112   2.20039
 Alpha virt. eigenvalues --    2.22418   2.23051   2.26090   2.26110   2.28526
 Alpha virt. eigenvalues --    2.28754   2.29397   2.29407   2.29694   2.29695
 Alpha virt. eigenvalues --    2.31885   2.31937   2.32647   2.33199   2.34585
 Alpha virt. eigenvalues --    2.34589   2.35180   2.35200   2.35709   2.35712
 Alpha virt. eigenvalues --    2.35724   2.35781   2.36111   2.36112   2.36482
 Alpha virt. eigenvalues --    2.38292   2.41376   2.41577   2.41579   2.42236
 Alpha virt. eigenvalues --    2.42241   2.42830   2.43422   2.43428   2.44459
 Alpha virt. eigenvalues --    2.44615   2.44927   2.44953   2.45649   2.46081
 Alpha virt. eigenvalues --    2.46082   2.47009   2.47454   2.47616   2.47636
 Alpha virt. eigenvalues --    2.48171   2.48752   2.48863   2.50156   2.50475
 Alpha virt. eigenvalues --    2.50493   2.50847   2.52989   2.53169   2.53247
 Alpha virt. eigenvalues --    2.53499   2.53516   2.54549   2.54844   2.56005
 Alpha virt. eigenvalues --    2.56680   2.57179   2.57200   2.58659   2.59175
 Alpha virt. eigenvalues --    2.60272   2.60842   2.60858   2.61962   2.63147
 Alpha virt. eigenvalues --    2.63961   2.65296   2.65700   2.66003   2.66153
 Alpha virt. eigenvalues --    2.66233   2.67669   2.67920   2.71599   2.72784
 Alpha virt. eigenvalues --    2.72833   2.73199   2.73607   2.73662   2.74887
 Alpha virt. eigenvalues --    2.75113   2.77699   2.77944   2.79214   2.79911
 Alpha virt. eigenvalues --    2.82342   2.82476   2.82593   2.83388   2.83431
 Alpha virt. eigenvalues --    2.84317   2.84339   2.85369   2.85496   2.86370
 Alpha virt. eigenvalues --    2.86468   2.87887   2.87903   2.89678   2.91088
 Alpha virt. eigenvalues --    2.91260   2.92126   2.93790   2.93966   2.96239
 Alpha virt. eigenvalues --    2.96318   2.96371   2.97309   2.99775   3.00898
 Alpha virt. eigenvalues --    3.01092   3.04381   3.04437   3.05420   3.05759
 Alpha virt. eigenvalues --    3.07106   3.08363   3.08397   3.09090   3.12750
 Alpha virt. eigenvalues --    3.12802   3.14052   3.14075   3.17018   3.17073
 Alpha virt. eigenvalues --    3.18927   3.18964   3.19794   3.20396   3.20785
 Alpha virt. eigenvalues --    3.21638   3.22787   3.23078   3.23134   3.23437
 Alpha virt. eigenvalues --    3.24192   3.24197   3.27027   3.27233   3.28280
 Alpha virt. eigenvalues --    3.28281   3.31402   3.31693   3.32112   3.32266
 Alpha virt. eigenvalues --    3.33981   3.33999   3.34866   3.36119   3.37169
 Alpha virt. eigenvalues --    3.41702   3.43940   3.49553   3.51230   3.70532
 Alpha virt. eigenvalues --    3.74825   3.74879   3.75305   3.75305   3.75727
 Alpha virt. eigenvalues --    3.75728   3.76768   3.76770   3.77627   3.77627
 Alpha virt. eigenvalues --    3.79258   3.79285   3.79929   3.79939   3.80931
 Alpha virt. eigenvalues --    3.80933   3.82752   3.82779   3.94500   3.94723
 Alpha virt. eigenvalues --    3.95247   3.95261   3.96556   4.00453   4.00719
 Alpha virt. eigenvalues --    4.03059   4.03442   4.05252   4.06620   4.07986
 Alpha virt. eigenvalues --    4.09313   4.09482   4.12907   4.13283   4.13628
 Alpha virt. eigenvalues --    4.14193   4.14432   4.19504   4.20236   4.21998
 Alpha virt. eigenvalues --    4.25737   4.28062   4.29147   4.33717   4.34324
 Alpha virt. eigenvalues --    4.58370   4.91388   4.93517   4.94475   4.94479
 Alpha virt. eigenvalues --    4.96102   4.96126   4.97027   4.97027   5.20715
 Alpha virt. eigenvalues --    5.20725   5.25611   5.25640   5.30367   5.30450
 Alpha virt. eigenvalues --    5.32381   5.34043   5.66295   5.66296   5.70184
 Alpha virt. eigenvalues --    5.70201   5.76274   5.76558   5.78000   5.81113
 Alpha virt. eigenvalues --    7.81989   7.82278  17.20098  17.22215  17.42432
 Alpha virt. eigenvalues --   17.43218  17.48451  17.53315  23.42987  23.66881
 Alpha virt. eigenvalues --   23.76030  23.76116  23.78104  23.78106  23.78257
 Alpha virt. eigenvalues --   23.78461  23.78462  23.79033  23.79074  23.80784
 Alpha virt. eigenvalues --   23.80799  23.81847  23.81943  23.83406  23.85965
 Alpha virt. eigenvalues --   23.85965  23.88086  23.88205  24.03739  24.04064
 Alpha virt. eigenvalues --   24.16279  24.16665  49.88143  49.88147  49.91152
 Alpha virt. eigenvalues --   49.91180  49.93026  49.93084  49.93411  49.94134
 Alpha virt. eigenvalues --  188.93386 188.93865
          Condensed to atoms (all electrons):
 Mulliken charges:
               1
     1  C   -0.231038
     2  C    0.234928
     3  C   -0.092942
     4  C   -0.305682
     5  S    0.316367
     6  O   -0.376650
     7  H    0.103683
     8  C   -0.231034
     9  C    0.234928
    10  C   -0.092943
    11  C   -0.305680
    12  S    0.316366
    13  O   -0.376653
    14  H    0.103682
    15  C   -0.022900
    16  H    0.108091
    17  H    0.108130
    18  C   -0.241301
    19  H    0.132548
    20  H    0.132545
    21  C    0.025084
    22  H    0.086740
    23  H    0.086746
    24  O   -0.381003
    25  C   -0.002642
    26  H    0.094812
    27  H    0.094807
    28  C    0.002131
    29  H    0.097339
    30  H    0.097330
    31  O   -0.390753
    32  C    0.001081
    33  H    0.097498
    34  H    0.097501
    35  C   -0.008074
    36  H    0.093742
    37  H    0.093742
    38  O   -0.370217
    39  C   -0.101875
    40  H    0.088988
    41  H    0.115542
    42  H    0.088989
    43  C   -0.022895
    44  H    0.108105
    45  H    0.108114
    46  C   -0.241301
    47  H    0.132548
    48  H    0.132544
    49  C    0.025084
    50  H    0.086740
    51  H    0.086742
    52  O   -0.381000
    53  C   -0.002643
    54  H    0.094812
    55  H    0.094809
    56  C    0.002130
    57  H    0.097338
    58  H    0.097331
    59  O   -0.390751
    60  C    0.001080
    61  H    0.097498
    62  H    0.097502
    63  C   -0.008074
    64  H    0.093742
    65  H    0.093742
    66  O   -0.370216
    67  C   -0.101876
    68  H    0.088988
    69  H    0.115542
    70  H    0.088989
    71  H    0.126710
    72  H    0.126710
 Sum of Mulliken charges =  -0.00000
 Mulliken charges with hydrogens summed into heavy atoms:
               1
     1  C   -0.231038
     2  C    0.234928
     3  C    0.010741
     4  C   -0.178971
     5  S    0.316367
     6  O   -0.376650
     8  C   -0.231034
     9  C    0.234928
    10  C    0.010740
    11  C   -0.178970
    12  S    0.316366
    13  O   -0.376653
    15  C    0.193321
    18  C    0.023791
    21  C    0.198570
    24  O   -0.381003
    25  C    0.186978
    28  C    0.196800
    31  O   -0.390753
    32  C    0.196080
    35  C    0.179410
    38  O   -0.370217
    39  C    0.191645
    43  C    0.193325
    46  C    0.023791
    49  C    0.198566
    52  O   -0.381000
    53  C    0.186978
    56  C    0.196799
    59  O   -0.390751
    60  C    0.196080
    63  C    0.179410
    66  O   -0.370216
    67  C    0.191644
 Electronic spatial extent (au):  <R**2>=          71374.0573
 Charge=             -0.0000 electrons
 Dipole moment (field-independent basis, Debye):
    X=             -0.0001    Y=              0.0000    Z=              0.0032  Tot=              0.0032
 Quadrupole moment (field-independent basis, Debye-Ang):
   XX=           -168.4676   YY=           -207.6965   ZZ=           -223.7202
   XY=             29.7445   XZ=              0.0136   YZ=             -0.0010
 Traceless Quadrupole moment (field-independent basis, Debye-Ang):
   XX=             31.4938   YY=             -7.7350   ZZ=            -23.7588
   XY=             29.7445   XZ=              0.0136   YZ=             -0.0010
 Octapole moment (field-independent basis, Debye-Ang**2):
  XXX=             -0.0012  YYY=             -0.0005  ZZZ=              0.0644  XYY=              0.0003
  XXY=              0.0008  XXZ=              0.2752  XZZ=             -0.0003  YZZ=              0.0002
  YYZ=             -0.0265  XYZ=              0.0304
 Hexadecapole moment (field-independent basis, Debye-Ang**3):
 XXXX=         -70932.8881 YYYY=          -2801.9956 ZZZZ=           -358.1250 XXXY=           3432.7884
 XXXZ=              2.9206 YYYX=            -11.6047 YYYZ=              0.0157 ZZZX=             -0.0131
 ZZZY=             -0.0106 XXYY=         -15905.0659 XXZZ=         -14873.4090 YYZZ=           -604.5054
 XXYZ=             -0.1913 YYXZ=             -0.0997 ZZXY=              0.4181
 N-N= 3.454464808516D+03 E-N=-1.240016801288D+04  KE= 2.329055164839D+03
 No NMR shielding tensors so no spin-rotation constants.
 Leave Link  601 at Tue Mar 31 08:55:23 2020, MaxMem=  6710886400 cpu:               5.8 elap:               0.8
 (Enter /apps/gaussian/g16-a03/l9999.exe)
 1\1\GINC-CX1-141-15-1\FOpt\RB3LYP\6-311G(d,p)\C24H38O8S2\NS5018\31-Mar
 -2020\0\\#p opt b3lyp/6-311g**\\M.gjf\\0,1\C,-0.6447191303,0.264191183
 1,0.3349762961\C,-1.2819721448,1.4937589824,0.2661699549\C,-2.70354580
 33,1.4174295299,0.3031543371\C,-3.1465871383,0.1300842816,0.4000427228
 \S,-1.8513596334,-1.0102480427,0.4480569499\O,-0.537628295,2.633162346
 1,0.1723068115\H,-3.3633813246,2.2714966828,0.260274183\C,0.7740556199
 ,-0.004454112,0.3213344545\C,1.4112963102,-1.2340218418,0.3902410433\C
 ,2.8328728858,-1.1576959872,0.3532525334\C,3.2759210126,0.1296399877,0
 .2562436843\S,1.9806991051,1.2699725941,0.2081400109\O,0.6669338869,-2
 .3734239436,0.4839865858\H,3.492708753,-2.011754089,0.3962629532\C,-1.
 2230209958,3.8834582867,0.1054699802\H,-1.8834670415,3.8955871751,-0.7
 71320329\H,-1.8424313252,4.0129297083,1.0024906184\C,-0.174115315,4.97
 95615323,0.0085479898\H,0.4842404521,4.9295355863,0.8794657004\H,0.443
 6777147,4.8128764545,-0.8774599078\C,-0.7964549095,6.3665616037,-0.069
 2010168\H,-1.4543660191,6.4492104845,-0.9491460294\H,-1.413529947,6.56
 68135343,0.8213605151\O,0.2510539984,7.3155089435,-0.1563809306\C,-0.2
 056835372,8.6528325314,-0.2345640609\H,-0.8387295074,8.8031249124,-1.1
 209778639\H,-0.797998663,8.9206898774,0.6522725044\C,1.0164237786,9.54
 99204615,-0.3221416794\H,1.6088262609,9.2830471277,-1.2087594046\H,1.6
 493988734,9.4009028746,0.5640800534\O,0.5582248483,10.8865993752,-0.40
 05077609\C,1.6046405851,11.836536037,-0.4874479411\H,2.2210132915,11.6
 628715428,-1.3807868338\H,2.2613440654,11.7807096913,0.3921845159\C,0.
 9694570124,13.2135152685,-0.5645174987\H,0.3513672388,13.3858158818,0.
 329087322\H,0.3110681653,13.2679788952,-1.444181947\O,2.0151158569,14.
 1609444155,-0.6512394366\C,1.5479580783,15.4917567117,-0.7290869115\H,
 0.9630893881,15.767840557,0.160247445\H,2.4235711483,16.1384492083,-0.
 7919535284\H,0.9226698864,15.6495269036,-1.6197790244\C,1.3523390691,-
 3.6236080993,0.5527153195\H,2.0122154555,-3.6347023809,1.4299431787\H,
 1.9723189188,-3.7540920697,-0.3437681511\C,0.3034213876,-4.7196517984,
 0.6500654167\H,-0.3543487011,-4.6704819039,-0.221354495\H,-0.314969699
 4,-4.5521689149,1.5354945434\C,0.9258008185,-6.1065420692,0.7294854424
 \H,1.5435131319,-6.3074981332,-0.1604751822\H,1.5831065993,-6.18839303
 96,1.6099583877\O,-0.1216977751,-7.0554824627,0.8167566991\C,0.3350788
 937,-8.3926914119,0.8966619286\H,0.9279458233,-8.6614827946,0.01047666
 18\H,0.9675986017,-8.541968924,1.7836222427\C,-0.8870282104,-9.2897573
 838,0.9844324672\H,-1.5196033435,-9.1414674437,0.0978028309\H,-1.47984
 93426,-9.022215772,1.8705688529\O,-0.4287959381,-10.6263469962,1.06407
 40979\C,-1.475202752,-11.5762392299,1.1515772893\H,-2.131742065,-11.52
 11383611,0.2717766962\H,-2.0917476994,-11.4018772375,2.04466171\C,-0.8
 399855173,-12.9531317757,1.2298718424\H,-0.181717107,-13.0068461771,2.
 1096728688\H,-0.2217678341,-13.1261550609,0.336495209\O,-1.8856321469,
 -13.9005130564,1.3172345877\C,-1.4184475318,-15.231250914,1.3961760391
 \H,-0.7932390267,-15.3883034578,2.2870508734\H,-2.2940523048,-15.87791
 24017,1.459471552\H,-0.8334898644,-15.5080222408,0.5071140511\H,-4.166
 912465,-0.2173030673,0.4463609517\H,4.2962531392,0.4770014248,0.209879
 0281\\Version=ES64L-G16RevA.03\State=1-A\HF=-2335.9308556\RMSD=4.964e-
 09\RMSF=1.818e-06\Dipole=0.000012,0.0000502,0.0012774\Quadrupole=-8.69
 89254,26.2217485,-17.5228232,-19.8261744,1.1316018,-2.4919509\PG=C01 [
 X(C24H38O8S2)]\\@


 The juvenile sea squirt wanders through the sea searching
 for a suitable rock or hunk of coral to cling to and make
 its home for life.  For this task it has a rudimentary
 nervous system.  When it finds its spot and takes root, it
 doesn't need its brain any more so it eats it.
 It's rather like getting tenure.

                               -- source unknown
 Job cpu time:       0 days  7 hours 49 minutes 25.4 seconds.
 Elapsed time:       0 days  0 hours 59 minutes  6.7 seconds.
 File lengths (MBytes):  RWF=    454 Int=      0 D2E=      0 Chk=     55 Scr=      1
 Normal termination of Gaussian 16 at Tue Mar 31 08:55:24 2020.
