 Entering Gaussian System, Link 0=g16
 Input=P.gjf
 Output=P.log
 Initial command:
 /apps/gaussian/g16-a03/l1.exe "/tmp/pbs.1260834.pbs/Gau-26759.inp" -scrdir="/tmp/pbs.1260834.pbs/"
 Entering Link 1 = /apps/gaussian/g16-a03/l1.exe PID=     26760.
  
 Copyright (c) 1988,1990,1992,1993,1995,1998,2003,2009,2016,
            Gaussian, Inc.  All Rights Reserved.
  
 This is part of the Gaussian(R) 16 program.  It is based on
 the Gaussian(R) 09 system (copyright 2009, Gaussian, Inc.),
 the Gaussian(R) 03 system (copyright 2003, Gaussian, Inc.),
 the Gaussian(R) 98 system (copyright 1998, Gaussian, Inc.),
 the Gaussian(R) 94 system (copyright 1995, Gaussian, Inc.),
 the Gaussian 92(TM) system (copyright 1992, Gaussian, Inc.),
 the Gaussian 90(TM) system (copyright 1990, Gaussian, Inc.),
 the Gaussian 88(TM) system (copyright 1988, Gaussian, Inc.),
 the Gaussian 86(TM) system (copyright 1986, Carnegie Mellon
 University), and the Gaussian 82(TM) system (copyright 1983,
 Carnegie Mellon University). Gaussian is a federally registered
 trademark of Gaussian, Inc.
  
 This software contains proprietary and confidential information,
 including trade secrets, belonging to Gaussian, Inc.
  
 This software is provided under written license and may be
 used, copied, transmitted, or stored only in accord with that
 written license.
  
 The following legend is applicable only to US Government
 contracts under FAR:
  
                    RESTRICTED RIGHTS LEGEND
  
 Use, reproduction and disclosure by the US Government is
 subject to restrictions as set forth in subparagraphs (a)
 and (c) of the Commercial Computer Software - Restricted
 Rights clause in FAR 52.227-19.
  
 Gaussian, Inc.
 340 Quinnipiac St., Bldg. 40, Wallingford CT 06492
  
  
 ---------------------------------------------------------------
 Warning -- This program may not be used in any manner that
 competes with the business of Gaussian, Inc. or will provide
 assistance to any competitor of Gaussian, Inc.  The licensee
 of this program is prohibited from giving any competitor of
 Gaussian, Inc. access to this program.  By using this program,
 the user acknowledges that Gaussian, Inc. is engaged in the
 business of creating and licensing software in the field of
 computational chemistry and represents and warrants to the
 licensee that it is not a competitor of Gaussian, Inc. and that
 it will not use this program in any manner prohibited above.
 ---------------------------------------------------------------
  

 Cite this work as:
 Gaussian 16, Revision A.03,
 M. J. Frisch, G. W. Trucks, H. B. Schlegel, G. E. Scuseria, 
 M. A. Robb, J. R. Cheeseman, G. Scalmani, V. Barone, 
 G. A. Petersson, H. Nakatsuji, X. Li, M. Caricato, A. V. Marenich, 
 J. Bloino, B. G. Janesko, R. Gomperts, B. Mennucci, H. P. Hratchian, 
 J. V. Ortiz, A. F. Izmaylov, J. L. Sonnenberg, D. Williams-Young, 
 F. Ding, F. Lipparini, F. Egidi, J. Goings, B. Peng, A. Petrone, 
 T. Henderson, D. Ranasinghe, V. G. Zakrzewski, J. Gao, N. Rega, 
 G. Zheng, W. Liang, M. Hada, M. Ehara, K. Toyota, R. Fukuda, 
 J. Hasegawa, M. Ishida, T. Nakajima, Y. Honda, O. Kitao, H. Nakai, 
 T. Vreven, K. Throssell, J. A. Montgomery, Jr., J. E. Peralta, 
 F. Ogliaro, M. J. Bearpark, J. J. Heyd, E. N. Brothers, K. N. Kudin, 
 V. N. Staroverov, T. A. Keith, R. Kobayashi, J. Normand, 
 K. Raghavachari, A. P. Rendell, J. C. Burant, S. S. Iyengar, 
 J. Tomasi, M. Cossi, J. M. Millam, M. Klene, C. Adamo, R. Cammi, 
 J. W. Ochterski, R. L. Martin, K. Morokuma, O. Farkas, 
 J. B. Foresman, and D. J. Fox, Gaussian, Inc., Wallingford CT, 2016.
 
 ******************************************
 Gaussian 16:  ES64L-G16RevA.03 25-Dec-2016
                31-Mar-2020 
 ******************************************
 %mem=50GB
 %nprocshared=8
 Will use up to    8 processors via shared memory.
 ---------------------
 #p opt b3lyp/6-311g**
 ---------------------
 1/18=20,19=15,26=3,38=1/1,3;
 2/9=110,12=2,17=6,18=5,40=1/2;
 3/5=4,6=6,7=101,11=2,25=1,30=1,71=1,74=-5/1,2,3;
 4//1;
 5/5=2,38=5/2;
 6/7=2,8=2,9=2,10=2,28=1/1;
 7//1,2,3,16;
 1/18=20,19=15,26=3/3(2);
 2/9=110/2;
 99//99;
 2/9=110/2;
 3/5=4,6=6,7=101,11=2,25=1,30=1,71=1,74=-5/1,2,3;
 4/5=5,16=3,69=1/1;
 5/5=2,38=5/2;
 7//1,2,3,16;
 1/18=20,19=15,26=3/3(-5);
 2/9=110/2;
 6/7=2,8=2,9=2,10=2,19=2,28=1/1;
 99/9=1/99;
 Leave Link    1 at Tue Mar 31 08:55:17 2020, MaxMem=  6710886400 cpu:               0.3 elap:               0.0
 (Enter /apps/gaussian/g16-a03/l101.exe)
 -----
 P.gjf
 -----
 Symbolic Z-matrix:
 Charge =  0 Multiplicity = 1
 C                    -0.706     0.154     0. 
 C                    -1.31      1.401    -0.001 
 C                    -2.733     1.362     0.001 
 C                    -3.212     0.086     0.004 
 S                    -1.948    -1.091     0.004 
 O                    -0.536     2.524    -0.003 
 H                    -3.366     2.237     0.002 
 C                     0.706    -0.154    -0.002 
 C                     1.31     -1.401    -0.001 
 C                     2.733    -1.363    -0.003 
 C                     3.212    -0.086    -0.006 
 S                     1.949     1.091    -0.005 
 O                     0.536    -2.524     0.002 
 H                     3.368    -2.237    -0.003 
 C                    -1.041     3.841    -0.081 
 H                    -1.669     3.955     0.81 
 H                    -1.671     3.952    -0.971 
 C                     0.046     4.9      -0.085 
 H                     0.683     4.785     0.803 
 H                     0.68      4.782    -0.975 
 C                    -0.606     6.156    -0.086 
 H                    -1.222     6.217    -0.959 
 H                    -1.176     6.216     0.818 
 C                     0.64      7.292    -0.037 
 H                     1.062     7.277    -1.048 
 H                     1.462     7.259     0.687 
 C                    -0.172     8.559     0.164 
 H                    -1.001     8.589    -0.557 
 H                    -0.601     8.571     1.175 
 O                     0.713     9.646    -0.029 
 C                     0.094     10.912    0.126 
 H                    -0.724     11.04    -0.596 
 H                    -0.324     11.022    1.136 
 C                     1.155     11.972   -0.107 
 H                     1.574     11.858   -1.117 
 H                     1.974     11.842    0.614 
 O                     0.536     13.234    0.048 
 C                     1.42      14.323   -0.145 
 H                     1.849     14.307   -1.156 
 H                     2.249     14.289    0.575 
 C                     0.624     15.601    0.051 
 H                     0.192     15.616    1.064 
 H                    -0.208     15.633   -0.669 
 O                     1.508     16.687   -0.141 
 C                     0.88      17.942    0.016 
 H                     0.467     18.065    1.028 
 H                     1.64      18.707   -0.151 
 H                     0.066     18.083   -0.71 
 C                     1.256    -3.704     0.031 
 H                     1.885    -3.815     0.921 
 H                     1.882    -3.818    -0.86 
 C                     0.168    -4.763     0.035 
 H                    -0.464    -4.645     0.925 
 H                    -0.467    -4.648    -0.854 
 C                     0.82     -6.019     0.036 
 H                     1.436    -6.08      0.908 
 H                     1.389    -6.079    -0.868 
 C                    -0.107    -7.221     0.09 
 H                    -0.713    -7.174    -0.821 
 H                    -0.772    -7.173     0.959 
 C                     0.681    -8.519     0.117 
 H                     1.352    -8.565    -0.75 
 H                     1.294    -8.564     1.028 
 O                    -0.264    -9.572     0.087 
 C                     0.324    -10.86     0.107 
 H                     0.984    -11.005   -0.76 
 H                     0.924    -11.003    1.017 
 C                    -0.801    -11.879    0.072 
 H                    -1.403    -11.735   -0.838 
 H                    -1.461    -11.732    0.938 
 O                    -0.21     -13.165    0.093 
 C                    -1.154    -14.219    0.062 
 H                    -1.77     -14.169   -0.849 
 H                    -1.829    -14.168    0.928 
 C                    -0.383    -15.526    0.088 
 H                     0.233    -15.573    0.998 
 H                     0.292    -15.575   -0.779 
 O                    -1.328    -16.577    0.058 
 C                    -0.73     -17.857    0.079 
 H                    -0.135    -18.011    0.991 
 H                    -1.536    -18.591    0.053 
 H                    -0.076    -18.012   -0.792 
 H                    -4.195    -0.261     0.009 
 H                     4.231     0.34     -0.013 
 
 ITRead=  0  0  0  0  0  0  0  0  0  0  0  0  0  0  0  0  0  0  0  0
 ITRead=  0  0  0  0  0  0  0  0  0  0  0  0  0  0  0  0  0  0  0  0
 ITRead=  0  0  0  0  0  0  0  0  0  0  0  0  0  0  0  0  0  0  0  0
 ITRead=  0  0  0  0  0  0  0  0  0  0  0  0  0  0  0  0  0  0  0  0
 ITRead=  0  0  0  0
 MicOpt= -1 -1 -1 -1 -1 -1 -1 -1 -1 -1 -1 -1 -1 -1 -1 -1 -1 -1 -1 -1
 MicOpt= -1 -1 -1 -1 -1 -1 -1 -1 -1 -1 -1 -1 -1 -1 -1 -1 -1 -1 -1 -1
 MicOpt= -1 -1 -1 -1 -1 -1 -1 -1 -1 -1 -1 -1 -1 -1 -1 -1 -1 -1 -1 -1
 MicOpt= -1 -1 -1 -1 -1 -1 -1 -1 -1 -1 -1 -1 -1 -1 -1 -1 -1 -1 -1 -1
 MicOpt= -1 -1 -1 -1
 NAtoms=     84 NQM=       84 NQMF=       0 NMMI=      0 NMMIF=      0
                NMic=       0 NMicF=      0.
                    Isotopes and Nuclear Properties:
 (Nuclear quadrupole moments (NQMom) in fm**2, nuclear magnetic moments (NMagM)
  in nuclear magnetons)

  Atom         1           2           3           4           5           6           7           8           9          10
 IAtWgt=          12          12          12          12          32          16           1          12          12          12
 AtmWgt=  12.0000000  12.0000000  12.0000000  12.0000000  31.9720718  15.9949146   1.0078250  12.0000000  12.0000000  12.0000000
 NucSpn=           0           0           0           0           0           0           1           0           0           0
 AtZEff=  -0.0000000  -0.0000000  -0.0000000  -0.0000000  -0.0000000  -0.0000000  -0.0000000  -0.0000000  -0.0000000  -0.0000000
 NQMom=    0.0000000   0.0000000   0.0000000   0.0000000   0.0000000   0.0000000   0.0000000   0.0000000   0.0000000   0.0000000
 NMagM=    0.0000000   0.0000000   0.0000000   0.0000000   0.0000000   0.0000000   2.7928460   0.0000000   0.0000000   0.0000000
 AtZNuc=   6.0000000   6.0000000   6.0000000   6.0000000  16.0000000   8.0000000   1.0000000   6.0000000   6.0000000   6.0000000

  Atom        11          12          13          14          15          16          17          18          19          20
 IAtWgt=          12          32          16           1          12           1           1          12           1           1
 AtmWgt=  12.0000000  31.9720718  15.9949146   1.0078250  12.0000000   1.0078250   1.0078250  12.0000000   1.0078250   1.0078250
 NucSpn=           0           0           0           1           0           1           1           0           1           1
 AtZEff=  -0.0000000  -0.0000000  -0.0000000  -0.0000000  -0.0000000  -0.0000000  -0.0000000  -0.0000000  -0.0000000  -0.0000000
 NQMom=    0.0000000   0.0000000   0.0000000   0.0000000   0.0000000   0.0000000   0.0000000   0.0000000   0.0000000   0.0000000
 NMagM=    0.0000000   0.0000000   0.0000000   2.7928460   0.0000000   2.7928460   2.7928460   0.0000000   2.7928460   2.7928460
 AtZNuc=   6.0000000  16.0000000   8.0000000   1.0000000   6.0000000   1.0000000   1.0000000   6.0000000   1.0000000   1.0000000

  Atom        21          22          23          24          25          26          27          28          29          30
 IAtWgt=          12           1           1          12           1           1          12           1           1          16
 AtmWgt=  12.0000000   1.0078250   1.0078250  12.0000000   1.0078250   1.0078250  12.0000000   1.0078250   1.0078250  15.9949146
 NucSpn=           0           1           1           0           1           1           0           1           1           0
 AtZEff=  -0.0000000  -0.0000000  -0.0000000  -0.0000000  -0.0000000  -0.0000000  -0.0000000  -0.0000000  -0.0000000  -0.0000000
 NQMom=    0.0000000   0.0000000   0.0000000   0.0000000   0.0000000   0.0000000   0.0000000   0.0000000   0.0000000   0.0000000
 NMagM=    0.0000000   2.7928460   2.7928460   0.0000000   2.7928460   2.7928460   0.0000000   2.7928460   2.7928460   0.0000000
 AtZNuc=   6.0000000   1.0000000   1.0000000   6.0000000   1.0000000   1.0000000   6.0000000   1.0000000   1.0000000   8.0000000

  Atom        31          32          33          34          35          36          37          38          39          40
 IAtWgt=          12           1           1          12           1           1          16          12           1           1
 AtmWgt=  12.0000000   1.0078250   1.0078250  12.0000000   1.0078250   1.0078250  15.9949146  12.0000000   1.0078250   1.0078250
 NucSpn=           0           1           1           0           1           1           0           0           1           1
 AtZEff=  -0.0000000  -0.0000000  -0.0000000  -0.0000000  -0.0000000  -0.0000000  -0.0000000  -0.0000000  -0.0000000  -0.0000000
 NQMom=    0.0000000   0.0000000   0.0000000   0.0000000   0.0000000   0.0000000   0.0000000   0.0000000   0.0000000   0.0000000
 NMagM=    0.0000000   2.7928460   2.7928460   0.0000000   2.7928460   2.7928460   0.0000000   0.0000000   2.7928460   2.7928460
 AtZNuc=   6.0000000   1.0000000   1.0000000   6.0000000   1.0000000   1.0000000   8.0000000   6.0000000   1.0000000   1.0000000

  Atom        41          42          43          44          45          46          47          48          49          50
 IAtWgt=          12           1           1          16          12           1           1           1          12           1
 AtmWgt=  12.0000000   1.0078250   1.0078250  15.9949146  12.0000000   1.0078250   1.0078250   1.0078250  12.0000000   1.0078250
 NucSpn=           0           1           1           0           0           1           1           1           0           1
 AtZEff=  -0.0000000  -0.0000000  -0.0000000  -0.0000000  -0.0000000  -0.0000000  -0.0000000  -0.0000000  -0.0000000  -0.0000000
 NQMom=    0.0000000   0.0000000   0.0000000   0.0000000   0.0000000   0.0000000   0.0000000   0.0000000   0.0000000   0.0000000
 NMagM=    0.0000000   2.7928460   2.7928460   0.0000000   0.0000000   2.7928460   2.7928460   2.7928460   0.0000000   2.7928460
 AtZNuc=   6.0000000   1.0000000   1.0000000   8.0000000   6.0000000   1.0000000   1.0000000   1.0000000   6.0000000   1.0000000

  Atom        51          52          53          54          55          56          57          58          59          60
 IAtWgt=           1          12           1           1          12           1           1          12           1           1
 AtmWgt=   1.0078250  12.0000000   1.0078250   1.0078250  12.0000000   1.0078250   1.0078250  12.0000000   1.0078250   1.0078250
 NucSpn=           1           0           1           1           0           1           1           0           1           1
 AtZEff=  -0.0000000  -0.0000000  -0.0000000  -0.0000000  -0.0000000  -0.0000000  -0.0000000  -0.0000000  -0.0000000  -0.0000000
 NQMom=    0.0000000   0.0000000   0.0000000   0.0000000   0.0000000   0.0000000   0.0000000   0.0000000   0.0000000   0.0000000
 NMagM=    2.7928460   0.0000000   2.7928460   2.7928460   0.0000000   2.7928460   2.7928460   0.0000000   2.7928460   2.7928460
 AtZNuc=   1.0000000   6.0000000   1.0000000   1.0000000   6.0000000   1.0000000   1.0000000   6.0000000   1.0000000   1.0000000

  Atom        61          62          63          64          65          66          67          68          69          70
 IAtWgt=          12           1           1          16          12           1           1          12           1           1
 AtmWgt=  12.0000000   1.0078250   1.0078250  15.9949146  12.0000000   1.0078250   1.0078250  12.0000000   1.0078250   1.0078250
 NucSpn=           0           1           1           0           0           1           1           0           1           1
 AtZEff=  -0.0000000  -0.0000000  -0.0000000  -0.0000000  -0.0000000  -0.0000000  -0.0000000  -0.0000000  -0.0000000  -0.0000000
 NQMom=    0.0000000   0.0000000   0.0000000   0.0000000   0.0000000   0.0000000   0.0000000   0.0000000   0.0000000   0.0000000
 NMagM=    0.0000000   2.7928460   2.7928460   0.0000000   0.0000000   2.7928460   2.7928460   0.0000000   2.7928460   2.7928460
 AtZNuc=   6.0000000   1.0000000   1.0000000   8.0000000   6.0000000   1.0000000   1.0000000   6.0000000   1.0000000   1.0000000

  Atom        71          72          73          74          75          76          77          78          79          80
 IAtWgt=          16          12           1           1          12           1           1          16          12           1
 AtmWgt=  15.9949146  12.0000000   1.0078250   1.0078250  12.0000000   1.0078250   1.0078250  15.9949146  12.0000000   1.0078250
 NucSpn=           0           0           1           1           0           1           1           0           0           1
 AtZEff=  -0.0000000  -0.0000000  -0.0000000  -0.0000000  -0.0000000  -0.0000000  -0.0000000  -0.0000000  -0.0000000  -0.0000000
 NQMom=    0.0000000   0.0000000   0.0000000   0.0000000   0.0000000   0.0000000   0.0000000   0.0000000   0.0000000   0.0000000
 NMagM=    0.0000000   0.0000000   2.7928460   2.7928460   0.0000000   2.7928460   2.7928460   0.0000000   0.0000000   2.7928460
 AtZNuc=   8.0000000   6.0000000   1.0000000   1.0000000   6.0000000   1.0000000   1.0000000   8.0000000   6.0000000   1.0000000

  Atom        81          82          83          84
 IAtWgt=           1           1           1           1
 AtmWgt=   1.0078250   1.0078250   1.0078250   1.0078250
 NucSpn=           1           1           1           1
 AtZEff=  -0.0000000  -0.0000000  -0.0000000  -0.0000000
 NQMom=    0.0000000   0.0000000   0.0000000   0.0000000
 NMagM=    2.7928460   2.7928460   2.7928460   2.7928460
 AtZNuc=   1.0000000   1.0000000   1.0000000   1.0000000
 Leave Link  101 at Tue Mar 31 08:55:17 2020, MaxMem=  6710886400 cpu:               3.7 elap:               0.5
 (Enter /apps/gaussian/g16-a03/l103.exe)

 GradGradGradGradGradGradGradGradGradGradGradGradGradGradGradGradGradGrad
 Berny optimization.
 Initialization pass.
                           ----------------------------
                           !    Initial Parameters    !
                           ! (Angstroms and Degrees)  !
 --------------------------                            --------------------------
 ! Name  Definition              Value          Derivative Info.                !
 --------------------------------------------------------------------------------
 ! R1    R(1,2)                  1.3856         estimate D2E/DX2                !
 ! R2    R(1,5)                  1.7586         estimate D2E/DX2                !
 ! R3    R(1,8)                  1.4452         estimate D2E/DX2                !
 ! R4    R(2,3)                  1.4235         estimate D2E/DX2                !
 ! R5    R(2,6)                  1.3639         estimate D2E/DX2                !
 ! R6    R(3,4)                  1.3629         estimate D2E/DX2                !
 ! R7    R(3,7)                  1.08           estimate D2E/DX2                !
 ! R8    R(4,5)                  1.7271         estimate D2E/DX2                !
 ! R9    R(4,83)                 1.0425         estimate D2E/DX2                !
 ! R10   R(6,15)                 1.4127         estimate D2E/DX2                !
 ! R11   R(8,9)                  1.3856         estimate D2E/DX2                !
 ! R12   R(8,12)                 1.7593         estimate D2E/DX2                !
 ! R13   R(9,10)                 1.4235         estimate D2E/DX2                !
 ! R14   R(9,13)                 1.3639         estimate D2E/DX2                !
 ! R15   R(10,11)                1.3639         estimate D2E/DX2                !
 ! R16   R(10,14)                1.0803         estimate D2E/DX2                !
 ! R17   R(11,12)                1.7264         estimate D2E/DX2                !
 ! R18   R(11,84)                1.1045         estimate D2E/DX2                !
 ! R19   R(13,49)                1.3826         estimate D2E/DX2                !
 ! R20   R(15,16)                1.096          estimate D2E/DX2                !
 ! R21   R(15,17)                1.096          estimate D2E/DX2                !
 ! R22   R(15,18)                1.5176         estimate D2E/DX2                !
 ! R23   R(18,19)                1.0989         estimate D2E/DX2                !
 ! R24   R(18,20)                1.0991         estimate D2E/DX2                !
 ! R25   R(18,21)                1.4151         estimate D2E/DX2                !
 ! R26   R(21,22)                1.0702         estimate D2E/DX2                !
 ! R27   R(21,23)                1.0704         estimate D2E/DX2                !
 ! R28   R(21,24)                1.6868         estimate D2E/DX2                !
 ! R29   R(24,25)                1.0956         estimate D2E/DX2                !
 ! R30   R(24,26)                1.0959         estimate D2E/DX2                !
 ! R31   R(24,27)                1.5182         estimate D2E/DX2                !
 ! R32   R(27,28)                1.0991         estimate D2E/DX2                !
 ! R33   R(27,29)                1.0983         estimate D2E/DX2                !
 ! R34   R(27,30)                1.4149         estimate D2E/DX2                !
 ! R35   R(30,31)                1.4177         estimate D2E/DX2                !
 ! R36   R(31,32)                1.0985         estimate D2E/DX2                !
 ! R37   R(31,33)                1.0986         estimate D2E/DX2                !
 ! R38   R(31,34)                1.5178         estimate D2E/DX2                !
 ! R39   R(34,35)                1.0994         estimate D2E/DX2                !
 ! R40   R(34,36)                1.0989         estimate D2E/DX2                !
 ! R41   R(34,37)                1.4142         estimate D2E/DX2                !
 ! R42   R(37,38)                1.4158         estimate D2E/DX2                !
 ! R43   R(38,39)                1.0984         estimate D2E/DX2                !
 ! R44   R(38,40)                1.0985         estimate D2E/DX2                !
 ! R45   R(38,41)                1.5183         estimate D2E/DX2                !
 ! R46   R(41,42)                1.1014         estimate D2E/DX2                !
 ! R47   R(41,43)                1.1007         estimate D2E/DX2                !
 ! R48   R(41,44)                1.4134         estimate D2E/DX2                !
 ! R49   R(44,45)                1.4121         estimate D2E/DX2                !
 ! R50   R(45,46)                1.0999         estimate D2E/DX2                !
 ! R51   R(45,47)                1.0912         estimate D2E/DX2                !
 ! R52   R(45,48)                1.0998         estimate D2E/DX2                !
 ! R53   R(49,50)                1.0955         estimate D2E/DX2                !
 ! R54   R(49,51)                1.0949         estimate D2E/DX2                !
 ! R55   R(49,52)                1.5183         estimate D2E/DX2                !
 ! R56   R(52,53)                1.0979         estimate D2E/DX2                !
 ! R57   R(52,54)                1.0985         estimate D2E/DX2                !
 ! R58   R(52,55)                1.4151         estimate D2E/DX2                !
 ! R59   R(55,56)                1.0694         estimate D2E/DX2                !
 ! R60   R(55,57)                1.0698         estimate D2E/DX2                !
 ! R61   R(55,58)                1.5189         estimate D2E/DX2                !
 ! R62   R(58,59)                1.0952         estimate D2E/DX2                !
 ! R63   R(58,60)                1.0953         estimate D2E/DX2                !
 ! R64   R(58,61)                1.5187         estimate D2E/DX2                !
 ! R65   R(61,62)                1.0973         estimate D2E/DX2                !
 ! R66   R(61,63)                1.099          estimate D2E/DX2                !
 ! R67   R(61,64)                1.4152         estimate D2E/DX2                !
 ! R68   R(64,65)                1.416          estimate D2E/DX2                !
 ! R69   R(65,66)                1.0992         estimate D2E/DX2                !
 ! R70   R(65,67)                1.0993         estimate D2E/DX2                !
 ! R71   R(65,68)                1.5183         estimate D2E/DX2                !
 ! R72   R(68,69)                1.1006         estimate D2E/DX2                !
 ! R73   R(68,70)                1.0987         estimate D2E/DX2                !
 ! R74   R(68,71)                1.4155         estimate D2E/DX2                !
 ! R75   R(71,72)                1.4153         estimate D2E/DX2                !
 ! R76   R(72,73)                1.1009         estimate D2E/DX2                !
 ! R77   R(72,74)                1.0992         estimate D2E/DX2                !
 ! R78   R(72,75)                1.5177         estimate D2E/DX2                !
 ! R79   R(75,76)                1.0999         estimate D2E/DX2                !
 ! R80   R(75,77)                1.0999         estimate D2E/DX2                !
 ! R81   R(75,78)                1.4137         estimate D2E/DX2                !
 ! R82   R(78,79)                1.413          estimate D2E/DX2                !
 ! R83   R(79,80)                1.0998         estimate D2E/DX2                !
 ! R84   R(79,81)                1.0904         estimate D2E/DX2                !
 ! R85   R(79,82)                1.1002         estimate D2E/DX2                !
 ! A1    A(2,1,5)              109.2254         estimate D2E/DX2                !
 ! A2    A(2,1,8)              128.1489         estimate D2E/DX2                !
 ! A3    A(5,1,8)              122.6258         estimate D2E/DX2                !
 ! A4    A(1,2,3)              114.2738         estimate D2E/DX2                !
 ! A5    A(1,2,6)              119.5806         estimate D2E/DX2                !
 ! A6    A(3,2,6)              126.1456         estimate D2E/DX2                !
 ! A7    A(2,3,4)              112.1457         estimate D2E/DX2                !
 ! A8    A(2,3,7)              124.3132         estimate D2E/DX2                !
 ! A9    A(4,3,7)              123.541          estimate D2E/DX2                !
 ! A10   A(3,4,5)              112.383          estimate D2E/DX2                !
 ! A11   A(3,4,83)             130.0189         estimate D2E/DX2                !
 ! A12   A(5,4,83)             117.5978         estimate D2E/DX2                !
 ! A13   A(1,5,4)               91.9721         estimate D2E/DX2                !
 ! A14   A(2,6,15)             124.3909         estimate D2E/DX2                !
 ! A15   A(1,8,9)              128.1489         estimate D2E/DX2                !
 ! A16   A(1,8,12)             122.6488         estimate D2E/DX2                !
 ! A17   A(9,8,12)             109.2023         estimate D2E/DX2                !
 ! A18   A(8,9,10)             114.314          estimate D2E/DX2                !
 ! A19   A(8,9,13)             119.5806         estimate D2E/DX2                !
 ! A20   A(10,9,13)            126.1053         estimate D2E/DX2                !
 ! A21   A(9,10,11)            112.0907         estimate D2E/DX2                !
 ! A22   A(9,10,14)            124.4704         estimate D2E/DX2                !
 ! A23   A(11,10,14)           123.4389         estimate D2E/DX2                !
 ! A24   A(10,11,12)           112.4203         estimate D2E/DX2                !
 ! A25   A(10,11,84)           133.2485         estimate D2E/DX2                !
 ! A26   A(12,11,84)           114.3306         estimate D2E/DX2                !
 ! A27   A(8,12,11)             91.9726         estimate D2E/DX2                !
 ! A28   A(9,13,49)            114.0313         estimate D2E/DX2                !
 ! A29   A(6,15,16)            104.887          estimate D2E/DX2                !
 ! A30   A(6,15,17)            110.1652         estimate D2E/DX2                !
 ! A31   A(6,15,18)            113.2447         estimate D2E/DX2                !
 ! A32   A(16,15,17)           108.6772         estimate D2E/DX2                !
 ! A33   A(16,15,18)           109.8751         estimate D2E/DX2                !
 ! A34   A(17,15,18)           109.8096         estimate D2E/DX2                !
 ! A35   A(15,18,19)           109.8799         estimate D2E/DX2                !
 ! A36   A(15,18,20)           109.9007         estimate D2E/DX2                !
 ! A37   A(15,18,21)           106.8183         estimate D2E/DX2                !
 ! A38   A(19,18,20)           107.9837         estimate D2E/DX2                !
 ! A39   A(19,18,21)           111.1327         estimate D2E/DX2                !
 ! A40   A(20,18,21)           111.13           estimate D2E/DX2                !
 ! A41   A(18,21,22)           108.443          estimate D2E/DX2                !
 ! A42   A(18,21,23)           107.1277         estimate D2E/DX2                !
 ! A43   A(18,21,24)           104.9141         estimate D2E/DX2                !
 ! A44   A(22,21,23)           112.286          estimate D2E/DX2                !
 ! A45   A(22,21,24)           114.2352         estimate D2E/DX2                !
 ! A46   A(23,21,24)           109.3337         estimate D2E/DX2                !
 ! A47   A(21,24,25)           104.3876         estimate D2E/DX2                !
 ! A48   A(21,24,26)           123.571          estimate D2E/DX2                !
 ! A49   A(21,24,27)            99.8341         estimate D2E/DX2                !
 ! A50   A(25,24,26)           108.6813         estimate D2E/DX2                !
 ! A51   A(25,24,27)           109.8516         estimate D2E/DX2                !
 ! A52   A(26,24,27)           109.8058         estimate D2E/DX2                !
 ! A53   A(24,27,28)           109.8364         estimate D2E/DX2                !
 ! A54   A(24,27,29)           109.87           estimate D2E/DX2                !
 ! A55   A(24,27,30)           106.7698         estimate D2E/DX2                !
 ! A56   A(28,27,29)           107.9951         estimate D2E/DX2                !
 ! A57   A(28,27,30)           111.1814         estimate D2E/DX2                !
 ! A58   A(29,27,30)           111.1905         estimate D2E/DX2                !
 ! A59   A(27,30,31)           113.4541         estimate D2E/DX2                !
 ! A60   A(30,31,32)           110.9349         estimate D2E/DX2                !
 ! A61   A(30,31,33)           110.8578         estimate D2E/DX2                !
 ! A62   A(30,31,34)           107.5568         estimate D2E/DX2                !
 ! A63   A(32,31,33)           108.0138         estimate D2E/DX2                !
 ! A64   A(32,31,34)           109.771          estimate D2E/DX2                !
 ! A65   A(33,31,34)           109.7055         estimate D2E/DX2                !
 ! A66   A(31,34,35)           109.5748         estimate D2E/DX2                !
 ! A67   A(31,34,36)           109.7348         estimate D2E/DX2                !
 ! A68   A(31,34,37)           107.4839         estimate D2E/DX2                !
 ! A69   A(35,34,36)           107.8461         estimate D2E/DX2                !
 ! A70   A(35,34,37)           111.1036         estimate D2E/DX2                !
 ! A71   A(36,34,37)           111.0939         estimate D2E/DX2                !
 ! A72   A(34,37,38)           113.4632         estimate D2E/DX2                !
 ! A73   A(37,38,39)           110.9853         estimate D2E/DX2                !
 ! A74   A(37,38,40)           110.9785         estimate D2E/DX2                !
 ! A75   A(37,38,41)           107.6067         estimate D2E/DX2                !
 ! A76   A(39,38,40)           107.9437         estimate D2E/DX2                !
 ! A77   A(39,38,41)           109.6241         estimate D2E/DX2                !
 ! A78   A(40,38,41)           109.6985         estimate D2E/DX2                !
 ! A79   A(38,41,42)           109.6231         estimate D2E/DX2                !
 ! A80   A(38,41,43)           109.6513         estimate D2E/DX2                !
 ! A81   A(38,41,44)           107.5362         estimate D2E/DX2                !
 ! A82   A(42,41,43)           107.743          estimate D2E/DX2                !
 ! A83   A(42,41,44)           111.0879         estimate D2E/DX2                !
 ! A84   A(43,41,44)           111.1952         estimate D2E/DX2                !
 ! A85   A(41,44,45)           112.9308         estimate D2E/DX2                !
 ! A86   A(44,45,46)           111.6331         estimate D2E/DX2                !
 ! A87   A(44,45,47)           107.2359         estimate D2E/DX2                !
 ! A88   A(44,45,48)           111.6974         estimate D2E/DX2                !
 ! A89   A(46,45,47)           108.9005         estimate D2E/DX2                !
 ! A90   A(46,45,48)           108.3674         estimate D2E/DX2                !
 ! A91   A(47,45,48)           108.9404         estimate D2E/DX2                !
 ! A92   A(13,49,50)           113.7359         estimate D2E/DX2                !
 ! A93   A(13,49,51)           111.6869         estimate D2E/DX2                !
 ! A94   A(13,49,52)           102.8362         estimate D2E/DX2                !
 ! A95   A(50,49,51)           108.8027         estimate D2E/DX2                !
 ! A96   A(50,49,52)           109.7939         estimate D2E/DX2                !
 ! A97   A(51,49,52)           109.8302         estimate D2E/DX2                !
 ! A98   A(49,52,53)           109.8563         estimate D2E/DX2                !
 ! A99   A(49,52,54)           109.8203         estimate D2E/DX2                !
 ! A100  A(49,52,55)           106.792          estimate D2E/DX2                !
 ! A101  A(53,52,54)           108.1805         estimate D2E/DX2                !
 ! A102  A(53,52,55)           111.1017         estimate D2E/DX2                !
 ! A103  A(54,52,55)           111.0883         estimate D2E/DX2                !
 ! A104  A(52,55,56)           108.4575         estimate D2E/DX2                !
 ! A105  A(52,55,57)           107.1106         estimate D2E/DX2                !
 ! A106  A(52,55,58)           114.9106         estimate D2E/DX2                !
 ! A107  A(56,55,57)           112.3            estimate D2E/DX2                !
 ! A108  A(56,55,58)           106.1069         estimate D2E/DX2                !
 ! A109  A(57,55,58)           108.0745         estimate D2E/DX2                !
 ! A110  A(55,58,59)           105.913          estimate D2E/DX2                !
 ! A111  A(55,58,60)           111.3503         estimate D2E/DX2                !
 ! A112  A(55,58,61)           111.12           estimate D2E/DX2                !
 ! A113  A(59,58,60)           108.7922         estimate D2E/DX2                !
 ! A114  A(59,58,61)           109.7903         estimate D2E/DX2                !
 ! A115  A(60,58,61)           109.7776         estimate D2E/DX2                !
 ! A116  A(58,61,62)           109.8202         estimate D2E/DX2                !
 ! A117  A(58,61,63)           109.8254         estimate D2E/DX2                !
 ! A118  A(58,61,64)           106.8034         estimate D2E/DX2                !
 ! A119  A(62,61,63)           108.1903         estimate D2E/DX2                !
 ! A120  A(62,61,64)           111.1246         estimate D2E/DX2                !
 ! A121  A(63,61,64)           111.0745         estimate D2E/DX2                !
 ! A122  A(61,64,65)           113.5295         estimate D2E/DX2                !
 ! A123  A(64,65,66)           110.9878         estimate D2E/DX2                !
 ! A124  A(64,65,67)           110.8944         estimate D2E/DX2                !
 ! A125  A(64,65,68)           107.6056         estimate D2E/DX2                !
 ! A126  A(66,65,67)           107.9406         estimate D2E/DX2                !
 ! A127  A(66,65,68)           109.7657         estimate D2E/DX2                !
 ! A128  A(67,65,68)           109.6446         estimate D2E/DX2                !
 ! A129  A(65,68,69)           109.6667         estimate D2E/DX2                !
 ! A130  A(65,68,70)           109.7024         estimate D2E/DX2                !
 ! A131  A(65,68,71)           107.4604         estimate D2E/DX2                !
 ! A132  A(69,68,70)           107.7963         estimate D2E/DX2                !
 ! A133  A(69,68,71)           111.0713         estimate D2E/DX2                !
 ! A134  A(70,68,71)           111.1418         estimate D2E/DX2                !
 ! A135  A(68,71,72)           113.4404         estimate D2E/DX2                !
 ! A136  A(71,72,73)           110.9489         estimate D2E/DX2                !
 ! A137  A(71,72,74)           110.9649         estimate D2E/DX2                !
 ! A138  A(71,72,75)           107.5853         estimate D2E/DX2                !
 ! A139  A(73,72,74)           107.8336         estimate D2E/DX2                !
 ! A140  A(73,72,75)           109.7281         estimate D2E/DX2                !
 ! A141  A(74,72,75)           109.7812         estimate D2E/DX2                !
 ! A142  A(72,75,76)           109.6021         estimate D2E/DX2                !
 ! A143  A(72,75,77)           109.6718         estimate D2E/DX2                !
 ! A144  A(72,75,78)           107.475          estimate D2E/DX2                !
 ! A145  A(76,75,77)           107.8525         estimate D2E/DX2                !
 ! A146  A(76,75,78)           111.1103         estimate D2E/DX2                !
 ! A147  A(77,75,78)           111.1243         estimate D2E/DX2                !
 ! A148  A(75,78,79)           112.9707         estimate D2E/DX2                !
 ! A149  A(78,79,80)           111.6018         estimate D2E/DX2                !
 ! A150  A(78,79,81)           107.2535         estimate D2E/DX2                !
 ! A151  A(78,79,82)           111.5585         estimate D2E/DX2                !
 ! A152  A(80,79,81)           108.9906         estimate D2E/DX2                !
 ! A153  A(80,79,82)           108.3719         estimate D2E/DX2                !
 ! A154  A(81,79,82)           109.0066         estimate D2E/DX2                !
 ! D1    D(5,1,2,3)             -0.0166         estimate D2E/DX2                !
 ! D2    D(5,1,2,6)            179.9495         estimate D2E/DX2                !
 ! D3    D(8,1,2,3)            179.9736         estimate D2E/DX2                !
 ! D4    D(8,1,2,6)             -0.0602         estimate D2E/DX2                !
 ! D5    D(2,1,5,4)              0.0061         estimate D2E/DX2                !
 ! D6    D(8,1,5,4)           -179.9848         estimate D2E/DX2                !
 ! D7    D(2,1,8,9)            180.0            estimate D2E/DX2                !
 ! D8    D(2,1,8,12)             0.0496         estimate D2E/DX2                !
 ! D9    D(5,1,8,9)             -0.0109         estimate D2E/DX2                !
 ! D10   D(5,1,8,12)          -179.9613         estimate D2E/DX2                !
 ! D11   D(1,2,3,4)              0.0217         estimate D2E/DX2                !
 ! D12   D(1,2,3,7)            179.909          estimate D2E/DX2                !
 ! D13   D(6,2,3,4)           -179.9418         estimate D2E/DX2                !
 ! D14   D(6,2,3,7)             -0.0545         estimate D2E/DX2                !
 ! D15   D(1,2,6,15)           176.2209         estimate D2E/DX2                !
 ! D16   D(3,2,6,15)            -3.8173         estimate D2E/DX2                !
 ! D17   D(2,3,4,5)             -0.0164         estimate D2E/DX2                !
 ! D18   D(2,3,4,83)           179.7826         estimate D2E/DX2                !
 ! D19   D(7,3,4,5)           -179.9047         estimate D2E/DX2                !
 ! D20   D(7,3,4,83)            -0.1057         estimate D2E/DX2                !
 ! D21   D(3,4,5,1)              0.006          estimate D2E/DX2                !
 ! D22   D(83,4,5,1)          -179.8203         estimate D2E/DX2                !
 ! D23   D(2,6,15,16)           61.0666         estimate D2E/DX2                !
 ! D24   D(2,6,15,17)          -55.717          estimate D2E/DX2                !
 ! D25   D(2,6,15,18)         -179.1292         estimate D2E/DX2                !
 ! D26   D(1,8,9,10)          -179.9737         estimate D2E/DX2                !
 ! D27   D(1,8,9,13)             0.0119         estimate D2E/DX2                !
 ! D28   D(12,8,9,10)           -0.018          estimate D2E/DX2                !
 ! D29   D(12,8,9,13)          179.9676         estimate D2E/DX2                !
 ! D30   D(1,8,12,11)          179.9983         estimate D2E/DX2                !
 ! D31   D(9,8,12,11)            0.0396         estimate D2E/DX2                !
 ! D32   D(8,9,10,11)           -0.0216         estimate D2E/DX2                !
 ! D33   D(8,9,10,14)         -179.9735         estimate D2E/DX2                !
 ! D34   D(13,9,10,11)         179.9939         estimate D2E/DX2                !
 ! D35   D(13,9,10,14)           0.042          estimate D2E/DX2                !
 ! D36   D(8,9,13,49)         -178.7163         estimate D2E/DX2                !
 ! D37   D(10,9,13,49)           1.2674         estimate D2E/DX2                !
 ! D38   D(9,10,11,12)           0.0522         estimate D2E/DX2                !
 ! D39   D(9,10,11,84)        -179.6557         estimate D2E/DX2                !
 ! D40   D(14,10,11,12)       -179.9953         estimate D2E/DX2                !
 ! D41   D(14,10,11,84)          0.2968         estimate D2E/DX2                !
 ! D42   D(10,11,12,8)          -0.0534         estimate D2E/DX2                !
 ! D43   D(84,11,12,8)         179.7131         estimate D2E/DX2                !
 ! D44   D(9,13,49,50)          61.0614         estimate D2E/DX2                !
 ! D45   D(9,13,49,51)         -62.5656         estimate D2E/DX2                !
 ! D46   D(9,13,49,52)         179.7211         estimate D2E/DX2                !
 ! D47   D(6,15,18,19)         -55.9655         estimate D2E/DX2                !
 ! D48   D(6,15,18,20)          62.7241         estimate D2E/DX2                !
 ! D49   D(6,15,18,21)        -176.6165         estimate D2E/DX2                !
 ! D50   D(16,15,18,19)         60.9447         estimate D2E/DX2                !
 ! D51   D(16,15,18,20)        179.6343         estimate D2E/DX2                !
 ! D52   D(16,15,18,21)        -59.7062         estimate D2E/DX2                !
 ! D53   D(17,15,18,19)       -179.5731         estimate D2E/DX2                !
 ! D54   D(17,15,18,20)        -60.8835         estimate D2E/DX2                !
 ! D55   D(17,15,18,21)         59.776          estimate D2E/DX2                !
 ! D56   D(15,18,21,22)        -59.4255         estimate D2E/DX2                !
 ! D57   D(15,18,21,23)         61.9796         estimate D2E/DX2                !
 ! D58   D(15,18,21,24)        178.121          estimate D2E/DX2                !
 ! D59   D(19,18,21,22)       -179.2729         estimate D2E/DX2                !
 ! D60   D(19,18,21,23)        -57.8678         estimate D2E/DX2                !
 ! D61   D(19,18,21,24)         58.2736         estimate D2E/DX2                !
 ! D62   D(20,18,21,22)         60.4457         estimate D2E/DX2                !
 ! D63   D(20,18,21,23)       -178.1493         estimate D2E/DX2                !
 ! D64   D(20,18,21,24)        -62.0078         estimate D2E/DX2                !
 ! D65   D(18,21,24,25)         74.324          estimate D2E/DX2                !
 ! D66   D(18,21,24,26)        -50.2256         estimate D2E/DX2                !
 ! D67   D(18,21,24,27)       -172.0806         estimate D2E/DX2                !
 ! D68   D(22,21,24,25)        -44.2914         estimate D2E/DX2                !
 ! D69   D(22,21,24,26)       -168.841          estimate D2E/DX2                !
 ! D70   D(22,21,24,27)         69.304          estimate D2E/DX2                !
 ! D71   D(23,21,24,25)       -171.0665         estimate D2E/DX2                !
 ! D72   D(23,21,24,26)         64.3838         estimate D2E/DX2                !
 ! D73   D(23,21,24,27)        -57.4711         estimate D2E/DX2                !
 ! D74   D(21,24,27,28)        -48.3651         estimate D2E/DX2                !
 ! D75   D(21,24,27,29)         70.2932         estimate D2E/DX2                !
 ! D76   D(21,24,27,30)       -169.021          estimate D2E/DX2                !
 ! D77   D(25,24,27,28)         60.9463         estimate D2E/DX2                !
 ! D78   D(25,24,27,29)        179.6046         estimate D2E/DX2                !
 ! D79   D(25,24,27,30)        -59.7096         estimate D2E/DX2                !
 ! D80   D(26,24,27,28)       -179.5833         estimate D2E/DX2                !
 ! D81   D(26,24,27,29)        -60.925          estimate D2E/DX2                !
 ! D82   D(26,24,27,30)         59.7609         estimate D2E/DX2                !
 ! D83   D(24,27,30,31)        179.9401         estimate D2E/DX2                !
 ! D84   D(28,27,30,31)         60.1478         estimate D2E/DX2                !
 ! D85   D(29,27,30,31)        -60.2217         estimate D2E/DX2                !
 ! D86   D(27,30,31,32)        -59.9705         estimate D2E/DX2                !
 ! D87   D(27,30,31,33)         60.0352         estimate D2E/DX2                !
 ! D88   D(27,30,31,34)        179.9698         estimate D2E/DX2                !
 ! D89   D(30,31,34,35)         59.1607         estimate D2E/DX2                !
 ! D90   D(30,31,34,36)        -59.0762         estimate D2E/DX2                !
 ! D91   D(30,31,34,37)       -179.9983         estimate D2E/DX2                !
 ! D92   D(32,31,34,35)        -61.6342         estimate D2E/DX2                !
 ! D93   D(32,31,34,36)       -179.8711         estimate D2E/DX2                !
 ! D94   D(32,31,34,37)         59.2068         estimate D2E/DX2                !
 ! D95   D(33,31,34,35)        179.8241         estimate D2E/DX2                !
 ! D96   D(33,31,34,36)         61.5872         estimate D2E/DX2                !
 ! D97   D(33,31,34,37)        -59.3349         estimate D2E/DX2                !
 ! D98   D(31,34,37,38)       -179.9589         estimate D2E/DX2                !
 ! D99   D(35,34,37,38)        -60.0854         estimate D2E/DX2                !
 ! D100  D(36,34,37,38)         59.978          estimate D2E/DX2                !
 ! D101  D(34,37,38,39)         60.0613         estimate D2E/DX2                !
 ! D102  D(34,37,38,40)        -59.9697         estimate D2E/DX2                !
 ! D103  D(34,37,38,41)       -179.9977         estimate D2E/DX2                !
 ! D104  D(37,38,41,42)         59.0758         estimate D2E/DX2                !
 ! D105  D(37,38,41,43)        -59.0147         estimate D2E/DX2                !
 ! D106  D(37,38,41,44)        179.9574         estimate D2E/DX2                !
 ! D107  D(39,38,41,42)        179.8764         estimate D2E/DX2                !
 ! D108  D(39,38,41,43)         61.7859         estimate D2E/DX2                !
 ! D109  D(39,38,41,44)        -59.2421         estimate D2E/DX2                !
 ! D110  D(40,38,41,42)        -61.7599         estimate D2E/DX2                !
 ! D111  D(40,38,41,43)       -179.8504         estimate D2E/DX2                !
 ! D112  D(40,38,41,44)         59.1217         estimate D2E/DX2                !
 ! D113  D(38,41,44,45)        179.9931         estimate D2E/DX2                !
 ! D114  D(42,41,44,45)        -60.051          estimate D2E/DX2                !
 ! D115  D(43,41,44,45)         59.9395         estimate D2E/DX2                !
 ! D116  D(41,44,45,46)         60.8093         estimate D2E/DX2                !
 ! D117  D(41,44,45,47)       -179.9883         estimate D2E/DX2                !
 ! D118  D(41,44,45,48)        -60.7001         estimate D2E/DX2                !
 ! D119  D(13,49,52,53)        -60.617          estimate D2E/DX2                !
 ! D120  D(13,49,52,54)         58.2504         estimate D2E/DX2                !
 ! D121  D(13,49,52,55)        178.7985         estimate D2E/DX2                !
 ! D122  D(50,49,52,53)         60.7669         estimate D2E/DX2                !
 ! D123  D(50,49,52,54)        179.6343         estimate D2E/DX2                !
 ! D124  D(50,49,52,55)        -59.8176         estimate D2E/DX2                !
 ! D125  D(51,49,52,53)       -179.6339         estimate D2E/DX2                !
 ! D126  D(51,49,52,54)        -60.7665         estimate D2E/DX2                !
 ! D127  D(51,49,52,55)         59.7816         estimate D2E/DX2                !
 ! D128  D(49,52,55,56)         59.3966         estimate D2E/DX2                !
 ! D129  D(49,52,55,57)        -62.0236         estimate D2E/DX2                !
 ! D130  D(49,52,55,58)        177.9178         estimate D2E/DX2                !
 ! D131  D(53,52,55,56)        -60.3883         estimate D2E/DX2                !
 ! D132  D(53,52,55,57)        178.1915         estimate D2E/DX2                !
 ! D133  D(53,52,55,58)         58.1329         estimate D2E/DX2                !
 ! D134  D(54,52,55,56)        179.1301         estimate D2E/DX2                !
 ! D135  D(54,52,55,57)         57.71           estimate D2E/DX2                !
 ! D136  D(54,52,55,58)        -62.3487         estimate D2E/DX2                !
 ! D137  D(52,55,58,59)         62.0277         estimate D2E/DX2                !
 ! D138  D(52,55,58,60)        -56.0781         estimate D2E/DX2                !
 ! D139  D(52,55,58,61)       -178.7927         estimate D2E/DX2                !
 ! D140  D(56,55,58,59)       -178.1411         estimate D2E/DX2                !
 ! D141  D(56,55,58,60)         63.7531         estimate D2E/DX2                !
 ! D142  D(56,55,58,61)        -58.9615         estimate D2E/DX2                !
 ! D143  D(57,55,58,59)        -57.4971         estimate D2E/DX2                !
 ! D144  D(57,55,58,60)       -175.6029         estimate D2E/DX2                !
 ! D145  D(57,55,58,61)         61.6825         estimate D2E/DX2                !
 ! D146  D(55,58,61,62)        -56.0339         estimate D2E/DX2                !
 ! D147  D(55,58,61,63)         62.8265         estimate D2E/DX2                !
 ! D148  D(55,58,61,64)       -176.6324         estimate D2E/DX2                !
 ! D149  D(59,58,61,62)         60.7971         estimate D2E/DX2                !
 ! D150  D(59,58,61,63)        179.6575         estimate D2E/DX2                !
 ! D151  D(59,58,61,64)        -59.8014         estimate D2E/DX2                !
 ! D152  D(60,58,61,62)       -179.6514         estimate D2E/DX2                !
 ! D153  D(60,58,61,63)        -60.791          estimate D2E/DX2                !
 ! D154  D(60,58,61,64)         59.7502         estimate D2E/DX2                !
 ! D155  D(58,61,64,65)        179.9807         estimate D2E/DX2                !
 ! D156  D(62,61,64,65)         60.2196         estimate D2E/DX2                !
 ! D157  D(63,61,64,65)        -60.2804         estimate D2E/DX2                !
 ! D158  D(61,64,65,66)        -59.9197         estimate D2E/DX2                !
 ! D159  D(61,64,65,67)         60.0532         estimate D2E/DX2                !
 ! D160  D(61,64,65,68)        179.9654         estimate D2E/DX2                !
 ! D161  D(64,65,68,69)         59.1973         estimate D2E/DX2                !
 ! D162  D(64,65,68,70)        -59.0145         estimate D2E/DX2                !
 ! D163  D(64,65,68,71)       -179.9616         estimate D2E/DX2                !
 ! D164  D(66,65,68,69)        -61.6883         estimate D2E/DX2                !
 ! D165  D(66,65,68,70)       -179.9001         estimate D2E/DX2                !
 ! D166  D(66,65,68,71)         59.1528         estimate D2E/DX2                !
 ! D167  D(67,65,68,69)        179.8992         estimate D2E/DX2                !
 ! D168  D(67,65,68,70)         61.6873         estimate D2E/DX2                !
 ! D169  D(67,65,68,71)        -59.2598         estimate D2E/DX2                !
 ! D170  D(65,68,71,72)       -179.9155         estimate D2E/DX2                !
 ! D171  D(69,68,71,72)        -59.9634         estimate D2E/DX2                !
 ! D172  D(70,68,71,72)         60.0476         estimate D2E/DX2                !
 ! D173  D(68,71,72,73)         59.9234         estimate D2E/DX2                !
 ! D174  D(68,71,72,74)        -59.9357         estimate D2E/DX2                !
 ! D175  D(68,71,72,75)        179.9568         estimate D2E/DX2                !
 ! D176  D(71,72,75,76)         59.0965         estimate D2E/DX2                !
 ! D177  D(71,72,75,77)        -59.127          estimate D2E/DX2                !
 ! D178  D(71,72,75,78)        179.9561         estimate D2E/DX2                !
 ! D179  D(73,72,75,76)        179.9006         estimate D2E/DX2                !
 ! D180  D(73,72,75,77)         61.6771         estimate D2E/DX2                !
 ! D181  D(73,72,75,78)        -59.2398         estimate D2E/DX2                !
 ! D182  D(74,72,75,76)        -61.7579         estimate D2E/DX2                !
 ! D183  D(74,72,75,77)       -179.9814         estimate D2E/DX2                !
 ! D184  D(74,72,75,78)         59.1017         estimate D2E/DX2                !
 ! D185  D(72,75,78,79)       -179.9715         estimate D2E/DX2                !
 ! D186  D(76,75,78,79)        -60.0664         estimate D2E/DX2                !
 ! D187  D(77,75,78,79)         60.03           estimate D2E/DX2                !
 ! D188  D(75,78,79,80)         60.7082         estimate D2E/DX2                !
 ! D189  D(75,78,79,81)       -179.9866         estimate D2E/DX2                !
 ! D190  D(75,78,79,82)        -60.6868         estimate D2E/DX2                !
 --------------------------------------------------------------------------------
 Trust Radius=3.00D-01 FncErr=1.00D-07 GrdErr=1.00D-06 EigMax=2.50D+02 EigMin=1.00D-04
 Number of steps in this run=    439 maximum allowed number of steps=    504.
 GradGradGradGradGradGradGradGradGradGradGradGradGradGradGradGradGradGrad

 Leave Link  103 at Tue Mar 31 08:55:17 2020, MaxMem=  6710886400 cpu:               0.2 elap:               0.0
 (Enter /apps/gaussian/g16-a03/l202.exe)
 Stoichiometry    C28H46O8S2
 Framework group  C1[X(C28H46O8S2)]
 Deg. of freedom   246
 Full point group                 C1      NOp   1
 Largest Abelian subgroup         C1      NOp   1
 Largest concise Abelian subgroup C1      NOp   1
                         Standard orientation:                         
 ---------------------------------------------------------------------
 Center     Atomic      Atomic             Coordinates (Angstroms)
 Number     Number       Type             X           Y           Z
 ---------------------------------------------------------------------
      1          6           0        0.090510    0.815780   -0.019282
      2          6           0        1.312360    1.469160   -0.017595
      3          6           0        1.216492    2.889462   -0.020099
      4          6           0       -0.077641    3.317057   -0.023210
      5         16           0       -1.203156    2.007004   -0.023619
      6          8           0        2.465406    0.740687   -0.013136
      7          1           0        2.065475    3.556948   -0.017855
      8          6           0       -0.160783   -0.607407   -0.018075
      9          6           0       -1.382633   -1.260788   -0.019761
     10          6           0       -1.287764   -2.681129   -0.017261
     11          6           0        0.007367   -3.108684   -0.014146
     12         16           0        1.132920   -1.799628   -0.012734
     13          8           0       -2.535683   -0.532311   -0.023221
     14          1           0       -2.135672   -3.350571   -0.018496
     15          6           0        3.761447    1.297722   -0.087890
     16          1           0        3.846898    1.932375    0.801590
     17          1           0        3.850515    1.929058   -0.979407
     18          6           0        4.863066    0.253935   -0.084704
     19          1           0        4.770288   -0.384562    0.804820
     20          1           0        4.773854   -0.386871   -0.973180
     21          6           0        6.091990    0.955636   -0.083132
     22          1           0        6.131594    1.571034   -0.957788
     23          1           0        6.125755    1.530214    0.819329
     24          6           0        7.276704   -0.243789   -0.026179
     25          1           0        7.282388   -0.668999   -1.035929
     26          1           0        7.273873   -1.064336    0.700212
     27          6           0        8.509463    0.618813    0.176941
     28          1           0        8.509006    1.446243   -0.546483
     29          1           0        8.500502    1.050897    1.186658
     30          8           0        9.631694   -0.222568   -0.009389
     31          6           0       10.871343    0.447015    0.148320
     32          1           0       10.969250    1.267370   -0.575714
     33          1           0       10.960746    0.872024    1.157427
     34          6           0       11.973782   -0.571421   -0.077568
     35          1           0       11.880422   -0.997589   -1.086687
     36          1           0       11.873921   -1.392858    0.645461
     37          8           0       13.209434    0.098002    0.080125
     38          6           0       14.333624   -0.742299   -0.106200
     39          1           0       14.338588   -1.174543   -1.115932
     40          1           0       14.330088   -1.569892    0.616209
     41          6           0       15.578032    0.104741    0.092009
     42          1           0       15.571941    0.539948    1.103728
     43          1           0       15.579449    0.935251   -0.630416
     44          8           0       16.699220   -0.735678   -0.093327
     45          6           0       17.927510   -0.057536    0.066314
     46          1           0       18.030095    0.363003    1.077484
     47          1           0       18.722906   -0.786819   -0.095571
     48          1           0       18.038582    0.759330   -0.661660
     49          6           0       -3.686054   -1.298837    0.003692
     50          1           0       -3.775163   -1.929174    0.895206
     51          1           0       -3.771586   -1.931492   -0.885794
     52          6           0       -4.787713   -0.254051    0.000503
     53          1           0       -4.698421    0.384756    0.888985
     54          1           0       -4.694852    0.382444   -0.890015
     55          6           0       -6.016637   -0.955753   -0.001070
     56          1           0       -6.056238   -1.571153    0.872587
     57          1           0       -6.050442   -1.529332   -0.903534
     58          6           0       -7.254932   -0.077410    0.045714
     59          1           0       -7.228774    0.527325   -0.866962
     60          1           0       -7.236824    0.591510    0.912841
     61          6           0       -8.520482   -0.916606    0.070405
     62          1           0       -8.536360   -1.591435   -0.794695
     63          1           0       -8.544363   -1.528255    0.983110
     64          8           0       -9.610301   -0.014564    0.033677
     65          6           0      -10.873829   -0.653541    0.050792
     66          1           0      -10.989067   -1.321339   -0.814703
     67          1           0      -10.996147   -1.256123    0.962100
     68          6           0      -11.936853    0.429701    0.008636
     69          1           0      -11.813617    1.034321   -0.902675
     70          1           0      -11.819614    1.097575    0.873138
     71          8           0      -13.198267   -0.212191    0.026767
     72          6           0      -14.289041    0.688809   -0.010962
     73          1           0      -14.260285    1.303655   -0.923658
     74          1           0      -14.268324    1.367832    0.853145
     75          6           0      -15.564260   -0.133764    0.012645
     76          1           0      -15.590015   -0.748493    0.924351
     77          1           0      -15.582975   -0.812710   -0.852455
     78          8           0      -16.652081    0.768358   -0.024076
     79          6           0      -17.907219    0.119712   -0.005902
     80          1           0      -18.040735   -0.478308    0.907351
     81          1           0      -18.672754    0.895634   -0.037043
     82          1           0      -18.032673   -0.542502   -0.875452
     83          1           0       -0.463680    4.285404   -0.022486
     84          1           0        0.473790   -4.109849   -0.016472
 ---------------------------------------------------------------------
 Rotational constants (GHZ):           0.4974864           0.0095344           0.0093669
 Leave Link  202 at Tue Mar 31 08:55:17 2020, MaxMem=  6710886400 cpu:               0.1 elap:               0.0
 (Enter /apps/gaussian/g16-a03/l301.exe)
 Standard basis: 6-311G(d,p) (5D, 7F)
 Ernie: Thresh=  0.10000D-02 Tol=  0.10000D-05 Strict=F.
 There are  1014 symmetry adapted cartesian basis functions of A   symmetry.
 There are   976 symmetry adapted basis functions of A   symmetry.
   976 basis functions,  1612 primitive gaussians,  1014 cartesian basis functions
   155 alpha electrons      155 beta electrons
       nuclear repulsion energy      3945.3055385044 Hartrees.
 IExCor=  402 DFT=T Ex+Corr=B3LYP ExCW=0 ScaHFX=  0.200000
 ScaDFX=  0.800000  0.720000  1.000000  0.810000 ScalE2=  1.000000  1.000000
 IRadAn=      5 IRanWt=     -1 IRanGd=            0 ICorTp=0 IEmpDi=  4
 NAtoms=   84 NActive=   84 NUniq=   84 SFac= 1.00D+00 NAtFMM=   60 NAOKFM=T Big=T
 Integral buffers will be    131072 words long.
 Raffenetti 2 integral format.
 Two-electron integral symmetry is turned on.
 Leave Link  301 at Tue Mar 31 08:55:17 2020, MaxMem=  6710886400 cpu:               0.6 elap:               0.1
 (Enter /apps/gaussian/g16-a03/l302.exe)
 NPDir=0 NMtPBC=     1 NCelOv=     1 NCel=       1 NClECP=     1 NCelD=      1
         NCelK=      1 NCelE2=     1 NClLst=     1 CellRange=     0.0.
 One-electron integrals computed using PRISM.
 One-electron integral symmetry used in STVInt
 NBasis=   976 RedAO= T EigKep=  2.86D-04  NBF=   976
 NBsUse=   976 1.00D-06 EigRej= -1.00D+00 NBFU=   976
 Precomputing XC quadrature grid using
 IXCGrd= 4 IRadAn=           5 IRanWt=          -1 IRanGd=           0 AccXCQ= 0.00D+00.
 Generated NRdTot=       0 NPtTot=           0 NUsed=           0 NTot=          32
 NSgBfM=   605   601   601   605   605 MxSgAt=    84 MxSgA2=    80.
 Leave Link  302 at Tue Mar 31 08:55:20 2020, MaxMem=  6710886400 cpu:              22.7 elap:               2.9
 (Enter /apps/gaussian/g16-a03/l303.exe)
 DipDrv:  MaxL=1.
 Leave Link  303 at Tue Mar 31 08:55:21 2020, MaxMem=  6710886400 cpu:               1.7 elap:               0.2
 (Enter /apps/gaussian/g16-a03/l401.exe)
 ExpMin= 7.71D-02 ExpMax= 9.34D+04 ExpMxC= 3.17D+03 IAcc=3 IRadAn=         5 AccDes= 0.00D+00
 Harris functional with IExCor=  402 and IRadAn=       5 diagonalized for initial guess.
 HarFok:  IExCor=  402 AccDes= 0.00D+00 IRadAn=         5 IDoV= 1 UseB2=F ITyADJ=14
 ICtDFT=  3500011 ScaDFX=  1.000000  1.000000  1.000000  1.000000
 FoFCou: FMM=F IPFlag=           0 FMFlag=      100000 FMFlg1=        2001
         NFxFlg=           0 DoJE=T BraDBF=F KetDBF=T FulRan=T
         wScrn=  0.000000 ICntrl=       500 IOpCl=  0 I1Cent=   200000004 NGrid=           0
         NMat0=    1 NMatS0=      1 NMatT0=    0 NMatD0=    1 NMtDS0=    0 NMtDT0=    0
 Petite list used in FoFCou.
 Harris En= -2493.21041133181    
 JPrj=0 DoOrth=F DoCkMO=F.
 Leave Link  401 at Tue Mar 31 08:55:32 2020, MaxMem=  6710886400 cpu:              84.7 elap:              10.6
 (Enter /apps/gaussian/g16-a03/l502.exe)
 Integral symmetry usage will be decided dynamically.
 Closed shell SCF:
 Using DIIS extrapolation, IDIIS=  1040.
 NGot=  6710886400 LenX=  6708811672 LenY=  6707782462
 Requested convergence on RMS density matrix=1.00D-08 within 128 cycles.
 Requested convergence on MAX density matrix=1.00D-06.
 Requested convergence on             energy=1.00D-06.
 No special actions if energy rises.
 Fock matrices will be formed incrementally for  20 cycles.
 Integral accuracy reduced to 1.0D-05 until final iterations.

 Cycle   1  Pass 0  IDiag  1:
 FoFJK:  IHMeth= 1 ICntrl=       0 DoSepK=F KAlg= 0 I1Cent=           0 FoldK=F
 IRaf= 430000000 NMat=       1 IRICut=       1 DoRegI=T DoRafI=F ISym2E= 0 IDoP0=0 IntGTp=1.
 FoFCou: FMM=T IPFlag=           0 FMFlag=      100000 FMFlg1=        2001
         NFxFlg=           0 DoJE=F BraDBF=F KetDBF=F FulRan=T
         wScrn=  0.000000 ICntrl=         0 IOpCl=  0 I1Cent=           0 NGrid=           0
         NMat0=    1 NMatS0=      1 NMatT0=    0 NMatD0=    1 NMtDS0=    0 NMtDT0=    0
 Symmetry not used in FoFCou.
 FMM levels:  10  Number of levels for PrismC:   9
 E= -2492.08115943060    
 DIIS: error= 3.49D-02 at cycle   1 NSaved=   1.
 NSaved= 1 IEnMin= 1 EnMin= -2492.08115943060     IErMin= 1 ErrMin= 3.49D-02
 ErrMax= 3.49D-02  0.00D+00 EMaxC= 1.00D-01 BMatC= 1.22D+00 BMatP= 1.22D+00
 IDIUse=3 WtCom= 6.51D-01 WtEn= 3.49D-01
 Coeff-Com:  0.100D+01
 Coeff-En:   0.100D+01
 Coeff:      0.100D+01
 Gap=     0.087 Goal=   None    Shift=    0.000
 GapD=    0.087 DampG=0.500 DampE=0.500 DampFc=0.2500 IDamp=-1.
 Damping current iteration by 2.50D-01
 RMSDP=2.17D-03 MaxDP=1.38D-01              OVMax= 2.47D-01

 Cycle   2  Pass 0  IDiag  1:
 RMSU=  5.41D-04    CP:  9.94D-01
 E= -2492.48208134285     Delta-E=       -0.400921912250 Rises=F Damp=T
 DIIS: error= 1.56D-02 at cycle   2 NSaved=   2.
 NSaved= 2 IEnMin= 2 EnMin= -2492.48208134285     IErMin= 2 ErrMin= 1.56D-02
 ErrMax= 1.56D-02  0.00D+00 EMaxC= 1.00D-01 BMatC= 3.10D-01 BMatP= 1.22D+00
 IDIUse=3 WtCom= 8.44D-01 WtEn= 1.56D-01
 Coeff-Com: -0.844D+00 0.184D+01
 Coeff-En:   0.000D+00 0.100D+01
 Coeff:     -0.713D+00 0.171D+01
 Gap=     0.214 Goal=   None    Shift=    0.000
 RMSDP=5.33D-04 MaxDP=3.37D-02 DE=-4.01D-01 OVMax= 2.43D-01

 Cycle   3  Pass 0  IDiag  1:
 RMSU=  4.62D-04    CP:  9.91D-01  1.49D+00
 E= -2493.15010417021     Delta-E=       -0.668022827365 Rises=F Damp=F
 DIIS: error= 6.06D-03 at cycle   3 NSaved=   3.
 NSaved= 3 IEnMin= 3 EnMin= -2493.15010417021     IErMin= 3 ErrMin= 6.06D-03
 ErrMax= 6.06D-03  0.00D+00 EMaxC= 1.00D-01 BMatC= 1.99D-02 BMatP= 3.10D-01
 IDIUse=3 WtCom= 9.39D-01 WtEn= 6.06D-02
 Coeff-Com: -0.267D+00 0.573D+00 0.694D+00
 Coeff-En:   0.000D+00 0.000D+00 0.100D+01
 Coeff:     -0.251D+00 0.539D+00 0.713D+00
 Gap=     0.143 Goal=   None    Shift=    0.000
 RMSDP=2.50D-04 MaxDP=3.35D-02 DE=-6.68D-01 OVMax= 6.82D-02

 Cycle   4  Pass 0  IDiag  1:
 RMSU=  1.62D-04    CP:  9.91D-01  1.57D+00  5.96D-01
 E= -2493.15813705524     Delta-E=       -0.008032885033 Rises=F Damp=F
 DIIS: error= 5.53D-03 at cycle   4 NSaved=   4.
 NSaved= 4 IEnMin= 4 EnMin= -2493.15813705524     IErMin= 4 ErrMin= 5.53D-03
 ErrMax= 5.53D-03  0.00D+00 EMaxC= 1.00D-01 BMatC= 1.19D-02 BMatP= 1.99D-02
 IDIUse=3 WtCom= 9.45D-01 WtEn= 5.53D-02
 Coeff-Com: -0.557D-01 0.121D+00 0.434D+00 0.501D+00
 Coeff-En:   0.000D+00 0.000D+00 0.383D+00 0.617D+00
 Coeff:     -0.526D-01 0.114D+00 0.431D+00 0.507D+00
 Gap=     0.144 Goal=   None    Shift=    0.000
 RMSDP=1.07D-04 MaxDP=9.46D-03 DE=-8.03D-03 OVMax= 2.96D-02

 Cycle   5  Pass 0  IDiag  1:
 RMSU=  5.78D-05    CP:  9.90D-01  1.54D+00  7.20D-01  5.80D-01
 E= -2493.16890927961     Delta-E=       -0.010772224361 Rises=F Damp=F
 DIIS: error= 1.23D-03 at cycle   5 NSaved=   5.
 NSaved= 5 IEnMin= 5 EnMin= -2493.16890927961     IErMin= 5 ErrMin= 1.23D-03
 ErrMax= 1.23D-03  0.00D+00 EMaxC= 1.00D-01 BMatC= 5.79D-04 BMatP= 1.19D-02
 IDIUse=3 WtCom= 9.88D-01 WtEn= 1.23D-02
 Coeff-Com: -0.837D-02 0.213D-01 0.182D+00 0.262D+00 0.543D+00
 Coeff-En:   0.000D+00 0.000D+00 0.000D+00 0.000D+00 0.100D+01
 Coeff:     -0.827D-02 0.211D-01 0.180D+00 0.259D+00 0.548D+00
 Gap=     0.146 Goal=   None    Shift=    0.000
 RMSDP=3.20D-05 MaxDP=3.06D-03 DE=-1.08D-02 OVMax= 1.07D-02

 Cycle   6  Pass 0  IDiag  1:
 RMSU=  1.84D-05    CP:  9.90D-01  1.54D+00  7.28D-01  6.28D-01  5.73D-01
 E= -2493.16931769377     Delta-E=       -0.000408414161 Rises=F Damp=F
 DIIS: error= 8.93D-04 at cycle   6 NSaved=   6.
 NSaved= 6 IEnMin= 6 EnMin= -2493.16931769377     IErMin= 6 ErrMin= 8.93D-04
 ErrMax= 8.93D-04  0.00D+00 EMaxC= 1.00D-01 BMatC= 1.48D-04 BMatP= 5.79D-04
 IDIUse=3 WtCom= 9.91D-01 WtEn= 8.93D-03
 Coeff-Com:  0.377D-02-0.529D-02 0.605D-01 0.101D+00 0.360D+00 0.480D+00
 Coeff-En:   0.000D+00 0.000D+00 0.000D+00 0.000D+00 0.228D+00 0.772D+00
 Coeff:      0.374D-02-0.524D-02 0.600D-01 0.100D+00 0.359D+00 0.483D+00
 Gap=     0.145 Goal=   None    Shift=    0.000
 RMSDP=1.46D-05 MaxDP=1.34D-03 DE=-4.08D-04 OVMax= 5.36D-03

 Cycle   7  Pass 0  IDiag  1:
 RMSU=  6.75D-06    CP:  9.90D-01  1.54D+00  7.33D-01  6.13D-01  6.88D-01
                    CP:  4.27D-01
 E= -2493.16945003992     Delta-E=       -0.000132346156 Rises=F Damp=F
 DIIS: error= 4.12D-04 at cycle   7 NSaved=   7.
 NSaved= 7 IEnMin= 7 EnMin= -2493.16945003992     IErMin= 7 ErrMin= 4.12D-04
 ErrMax= 4.12D-04  0.00D+00 EMaxC= 1.00D-01 BMatC= 1.60D-05 BMatP= 1.48D-04
 IDIUse=3 WtCom= 9.96D-01 WtEn= 4.12D-03
 Coeff-Com:  0.322D-02-0.517D-02 0.244D-01 0.428D-01 0.185D+00 0.315D+00
 Coeff-Com:  0.435D+00
 Coeff-En:   0.000D+00 0.000D+00 0.000D+00 0.000D+00 0.000D+00 0.713D-01
 Coeff-En:   0.929D+00
 Coeff:      0.321D-02-0.515D-02 0.243D-01 0.426D-01 0.184D+00 0.314D+00
 Coeff:      0.437D+00
 Gap=     0.145 Goal=   None    Shift=    0.000
 RMSDP=4.86D-06 MaxDP=4.28D-04 DE=-1.32D-04 OVMax= 1.79D-03

 Initial convergence to 1.0D-05 achieved.  Increase integral accuracy.
 Cycle   8  Pass 1  IDiag  1:
 E= -2493.16940170475     Delta-E=        0.000048335168 Rises=F Damp=F
 DIIS: error= 8.43D-05 at cycle   1 NSaved=   1.
 NSaved= 1 IEnMin= 1 EnMin= -2493.16940170475     IErMin= 1 ErrMin= 8.43D-05
 ErrMax= 8.43D-05  0.00D+00 EMaxC= 1.00D-01 BMatC= 2.60D-06 BMatP= 2.60D-06
 IDIUse=1 WtCom= 1.00D+00 WtEn= 0.00D+00
 Coeff-Com:  0.100D+01
 Coeff:      0.100D+01
 Gap=     0.145 Goal=   None    Shift=    0.000
 RMSDP=4.86D-06 MaxDP=4.28D-04 DE= 4.83D-05 OVMax= 8.56D-04

 Cycle   9  Pass 1  IDiag  1:
 RMSU=  1.85D-05    CP:  1.00D+00
 E= -2493.16940091384     Delta-E=        0.000000790919 Rises=F Damp=F
 DIIS: error= 1.93D-04 at cycle   2 NSaved=   2.
 NSaved= 2 IEnMin= 1 EnMin= -2493.16940170475     IErMin= 1 ErrMin= 8.43D-05
 ErrMax= 1.93D-04  0.00D+00 EMaxC= 1.00D-01 BMatC= 3.32D-06 BMatP= 2.60D-06
 IDIUse=3 WtCom= 4.19D-01 WtEn= 5.81D-01
 Coeff-Com:  0.540D+00 0.460D+00
 Coeff-En:   0.578D+00 0.422D+00
 Coeff:      0.562D+00 0.438D+00
 Gap=     0.145 Goal=   None    Shift=    0.000
 RMSDP=2.57D-06 MaxDP=2.44D-04 DE= 7.91D-07 OVMax= 9.78D-04

 Cycle  10  Pass 1  IDiag  1:
 RMSU=  2.56D-06    CP:  1.00D+00  9.86D-01
 E= -2493.16940369584     Delta-E=       -0.000002782001 Rises=F Damp=F
 DIIS: error= 9.13D-05 at cycle   3 NSaved=   3.
 NSaved= 3 IEnMin= 3 EnMin= -2493.16940369584     IErMin= 1 ErrMin= 8.43D-05
 ErrMax= 9.13D-05  0.00D+00 EMaxC= 1.00D-01 BMatC= 6.39D-07 BMatP= 2.60D-06
 IDIUse=1 WtCom= 1.00D+00 WtEn= 0.00D+00
 Coeff-Com:  0.514D-01 0.299D+00 0.649D+00
 Coeff:      0.514D-01 0.299D+00 0.649D+00
 Gap=     0.145 Goal=   None    Shift=    0.000
 RMSDP=1.07D-06 MaxDP=8.84D-05 DE=-2.78D-06 OVMax= 3.81D-04

 Cycle  11  Pass 1  IDiag  1:
 RMSU=  4.60D-07    CP:  1.00D+00  1.00D+00  6.37D-01
 E= -2493.16940427087     Delta-E=       -0.000000575033 Rises=F Damp=F
 DIIS: error= 1.66D-05 at cycle   4 NSaved=   4.
 NSaved= 4 IEnMin= 4 EnMin= -2493.16940427087     IErMin= 4 ErrMin= 1.66D-05
 ErrMax= 1.66D-05  0.00D+00 EMaxC= 1.00D-01 BMatC= 1.21D-07 BMatP= 6.39D-07
 IDIUse=1 WtCom= 1.00D+00 WtEn= 0.00D+00
 Coeff-Com: -0.167D-02 0.171D+00 0.434D+00 0.396D+00
 Coeff:     -0.167D-02 0.171D+00 0.434D+00 0.396D+00
 Gap=     0.145 Goal=   None    Shift=    0.000
 RMSDP=3.27D-07 MaxDP=3.18D-05 DE=-5.75D-07 OVMax= 1.06D-04

 Cycle  12  Pass 1  IDiag  1:
 RMSU=  1.03D-07    CP:  1.00D+00  1.00D+00  6.97D-01  4.12D-01
 E= -2493.16940438316     Delta-E=       -0.000000112291 Rises=F Damp=F
 DIIS: error= 2.02D-06 at cycle   5 NSaved=   5.
 NSaved= 5 IEnMin= 5 EnMin= -2493.16940438316     IErMin= 5 ErrMin= 2.02D-06
 ErrMax= 2.02D-06  0.00D+00 EMaxC= 1.00D-01 BMatC= 1.56D-09 BMatP= 1.21D-07
 IDIUse=1 WtCom= 1.00D+00 WtEn= 0.00D+00
 Coeff-Com: -0.234D-02 0.837D-01 0.213D+00 0.212D+00 0.494D+00
 Coeff:     -0.234D-02 0.837D-01 0.213D+00 0.212D+00 0.494D+00
 Gap=     0.145 Goal=   None    Shift=    0.000
 RMSDP=4.27D-08 MaxDP=4.09D-06 DE=-1.12D-07 OVMax= 1.14D-05

 Cycle  13  Pass 1  IDiag  1:
 RMSU=  3.51D-08    CP:  1.00D+00  1.00D+00  6.96D-01  4.38D-01  8.05D-01
 E= -2493.16940438452     Delta-E=       -0.000000001358 Rises=F Damp=F
 DIIS: error= 6.05D-07 at cycle   6 NSaved=   6.
 NSaved= 6 IEnMin= 6 EnMin= -2493.16940438452     IErMin= 6 ErrMin= 6.05D-07
 ErrMax= 6.05D-07  0.00D+00 EMaxC= 1.00D-01 BMatC= 1.30D-10 BMatP= 1.56D-09
 IDIUse=1 WtCom= 1.00D+00 WtEn= 0.00D+00
 Coeff-Com: -0.112D-02 0.314D-01 0.789D-01 0.824D-01 0.268D+00 0.540D+00
 Coeff:     -0.112D-02 0.314D-01 0.789D-01 0.824D-01 0.268D+00 0.540D+00
 Gap=     0.145 Goal=   None    Shift=    0.000
 RMSDP=1.52D-08 MaxDP=1.96D-06 DE=-1.36D-09 OVMax= 5.36D-06

 Cycle  14  Pass 1  IDiag  1:
 RMSU=  1.16D-08    CP:  1.00D+00  1.00D+00  6.95D-01  4.33D-01  8.01D-01
                    CP:  7.45D-01
 E= -2493.16940438468     Delta-E=       -0.000000000165 Rises=F Damp=F
 DIIS: error= 1.32D-07 at cycle   7 NSaved=   7.
 NSaved= 7 IEnMin= 7 EnMin= -2493.16940438468     IErMin= 7 ErrMin= 1.32D-07
 ErrMax= 1.32D-07  0.00D+00 EMaxC= 1.00D-01 BMatC= 9.34D-12 BMatP= 1.30D-10
 IDIUse=1 WtCom= 1.00D+00 WtEn= 0.00D+00
 Coeff-Com: -0.155D-03 0.236D-02 0.494D-02 0.723D-02 0.436D-01 0.235D+00
 Coeff-Com:  0.707D+00
 Coeff:     -0.155D-03 0.236D-02 0.494D-02 0.723D-02 0.436D-01 0.235D+00
 Coeff:      0.707D+00
 Gap=     0.145 Goal=   None    Shift=    0.000
 RMSDP=4.59D-09 MaxDP=4.80D-07 DE=-1.65D-10 OVMax= 1.26D-06

 SCF Done:  E(RB3LYP) =  -2493.16940438     A.U. after   14 cycles
            NFock= 14  Conv=0.46D-08     -V/T= 2.0028
 KE= 2.486310669701D+03 PE=-1.374646099500D+04 EE= 4.821675382414D+03
 Leave Link  502 at Tue Mar 31 08:59:27 2020, MaxMem=  6710886400 cpu:            1867.0 elap:             234.8
 (Enter /apps/gaussian/g16-a03/l601.exe)
 Copying SCF densities to generalized density rwf, IOpCl= 0 IROHF=0.

 **********************************************************************

            Population analysis using the SCF density.

 **********************************************************************

 Orbital symmetries:
       Occupied  (A) (A) (A) (A) (A) (A) (A) (A) (A) (A) (A) (A)
                 (A) (A) (A) (A) (A) (A) (A) (A) (A) (A) (A) (A)
                 (A) (A) (A) (A) (A) (A) (A) (A) (A) (A) (A) (A)
                 (A) (A) (A) (A) (A) (A) (A) (A) (A) (A) (A) (A)
                 (A) (A) (A) (A) (A) (A) (A) (A) (A) (A) (A) (A)
                 (A) (A) (A) (A) (A) (A) (A) (A) (A) (A) (A) (A)
                 (A) (A) (A) (A) (A) (A) (A) (A) (A) (A) (A) (A)
                 (A) (A) (A) (A) (A) (A) (A) (A) (A) (A) (A) (A)
                 (A) (A) (A) (A) (A) (A) (A) (A) (A) (A) (A) (A)
                 (A) (A) (A) (A) (A) (A) (A) (A) (A) (A) (A) (A)
                 (A) (A) (A) (A) (A) (A) (A) (A) (A) (A) (A) (A)
                 (A) (A) (A) (A) (A) (A) (A) (A) (A) (A) (A) (A)
                 (A) (A) (A) (A) (A) (A) (A) (A) (A) (A) (A)
       Virtual   (A) (A) (A) (A) (A) (A) (A) (A) (A) (A) (A) (A)
                 (A) (A) (A) (A) (A) (A) (A) (A) (A) (A) (A) (A)
                 (A) (A) (A) (A) (A) (A) (A) (A) (A) (A) (A) (A)
                 (A) (A) (A) (A) (A) (A) (A) (A) (A) (A) (A) (A)
                 (A) (A) (A) (A) (A) (A) (A) (A) (A) (A) (A) (A)
                 (A) (A) (A) (A) (A) (A) (A) (A) (A) (A) (A) (A)
                 (A) (A) (A) (A) (A) (A) (A) (A) (A) (A) (A) (A)
                 (A) (A) (A) (A) (A) (A) (A) (A) (A) (A) (A) (A)
                 (A) (A) (A) (A) (A) (A) (A) (A) (A) (A) (A) (A)
                 (A) (A) (A) (A) (A) (A) (A) (A) (A) (A) (A) (A)
                 (A) (A) (A) (A) (A) (A) (A) (A) (A) (A) (A) (A)
                 (A) (A) (A) (A) (A) (A) (A) (A) (A) (A) (A) (A)
                 (A) (A) (A) (A) (A) (A) (A) (A) (A) (A) (A) (A)
                 (A) (A) (A) (A) (A) (A) (A) (A) (A) (A) (A) (A)
                 (A) (A) (A) (A) (A) (A) (A) (A) (A) (A) (A) (A)
                 (A) (A) (A) (A) (A) (A) (A) (A) (A) (A) (A) (A)
                 (A) (A) (A) (A) (A) (A) (A) (A) (A) (A) (A) (A)
                 (A) (A) (A) (A) (A) (A) (A) (A) (A) (A) (A) (A)
                 (A) (A) (A) (A) (A) (A) (A) (A) (A) (A) (A) (A)
                 (A) (A) (A) (A) (A) (A) (A) (A) (A) (A) (A) (A)
                 (A) (A) (A) (A) (A) (A) (A) (A) (A) (A) (A) (A)
                 (A) (A) (A) (A) (A) (A) (A) (A) (A) (A) (A) (A)
                 (A) (A) (A) (A) (A) (A) (A) (A) (A) (A) (A) (A)
                 (A) (A) (A) (A) (A) (A) (A) (A) (A) (A) (A) (A)
                 (A) (A) (A) (A) (A) (A) (A) (A) (A) (A) (A) (A)
                 (A) (A) (A) (A) (A) (A) (A) (A) (A) (A) (A) (A)
                 (A) (A) (A) (A) (A) (A) (A) (A) (A) (A) (A) (A)
                 (A) (A) (A) (A) (A) (A) (A) (A) (A) (A) (A) (A)
                 (A) (A) (A) (A) (A) (A) (A) (A) (A) (A) (A) (A)
                 (A) (A) (A) (A) (A) (A) (A) (A) (A) (A) (A) (A)
                 (A) (A) (A) (A) (A) (A) (A) (A) (A) (A) (A) (A)
                 (A) (A) (A) (A) (A) (A) (A) (A) (A) (A) (A) (A)
                 (A) (A) (A) (A) (A) (A) (A) (A) (A) (A) (A) (A)
                 (A) (A) (A) (A) (A) (A) (A) (A) (A) (A) (A) (A)
                 (A) (A) (A) (A) (A) (A) (A) (A) (A) (A) (A) (A)
                 (A) (A) (A) (A) (A) (A) (A) (A) (A) (A) (A) (A)
                 (A) (A) (A) (A) (A) (A) (A) (A) (A) (A) (A) (A)
                 (A) (A) (A) (A) (A) (A) (A) (A) (A) (A) (A) (A)
                 (A) (A) (A) (A) (A) (A) (A) (A) (A) (A) (A) (A)
                 (A) (A) (A) (A) (A) (A) (A) (A) (A) (A) (A) (A)
                 (A) (A) (A) (A) (A) (A) (A) (A) (A) (A) (A) (A)
                 (A) (A) (A) (A) (A) (A) (A) (A) (A) (A) (A) (A)
                 (A) (A) (A) (A) (A) (A) (A) (A) (A) (A) (A) (A)
                 (A) (A) (A) (A) (A) (A) (A) (A) (A) (A) (A) (A)
                 (A) (A) (A) (A) (A) (A) (A) (A) (A) (A) (A) (A)
                 (A) (A) (A) (A) (A) (A) (A) (A) (A) (A) (A) (A)
                 (A) (A) (A) (A) (A) (A) (A) (A) (A) (A) (A) (A)
                 (A) (A) (A) (A) (A) (A) (A) (A) (A) (A) (A) (A)
                 (A) (A) (A) (A) (A) (A) (A) (A) (A) (A) (A) (A)
                 (A) (A) (A) (A) (A) (A) (A) (A) (A) (A) (A) (A)
                 (A) (A) (A) (A) (A) (A) (A) (A) (A) (A) (A) (A)
                 (A) (A) (A) (A) (A) (A) (A) (A) (A) (A) (A) (A)
                 (A) (A) (A) (A) (A) (A) (A) (A) (A) (A) (A) (A)
                 (A) (A) (A) (A) (A) (A) (A) (A) (A) (A) (A) (A)
                 (A) (A) (A) (A) (A) (A) (A) (A) (A) (A) (A) (A)
                 (A) (A) (A) (A) (A) (A) (A) (A) (A) (A) (A) (A)
                 (A) (A) (A) (A) (A) (A) (A) (A) (A) (A) (A) (A)
                 (A) (A) (A) (A) (A) (A) (A) (A) (A) (A) (A) (A)
                 (A) (A) (A) (A) (A) (A) (A) (A) (A) (A) (A) (A)
[...]
 Alpha virt. eigenvalues --    0.60010   0.60046   0.60736   0.61075   0.61118
 Alpha virt. eigenvalues --    0.61341   0.61376   0.61382   0.61594   0.61594
 Alpha virt. eigenvalues --    0.62213   0.62230   0.62341   0.62561   0.63008
 Alpha virt. eigenvalues --    0.63019   0.63042   0.63283   0.63433   0.63477
 Alpha virt. eigenvalues --    0.63555   0.63993   0.64276   0.64411   0.64898
 Alpha virt. eigenvalues --    0.64903   0.65762   0.66445   0.67554   0.67680
 Alpha virt. eigenvalues --    0.68081   0.68163   0.68913   0.69361   0.71745
 Alpha virt. eigenvalues --    0.71833   0.72471   0.72750   0.73062   0.73720
 Alpha virt. eigenvalues --    0.73988   0.74486   0.74822   0.76538   0.76719
 Alpha virt. eigenvalues --    0.77357   0.78267   0.78740   0.80410   0.80433
 Alpha virt. eigenvalues --    0.80767   0.82137   0.82345   0.84702   0.85825
 Alpha virt. eigenvalues --    0.87410   0.87574   0.87914   0.88127   0.89458
 Alpha virt. eigenvalues --    0.90112   0.90274   0.90401   0.90693   0.91478
 Alpha virt. eigenvalues --    0.91679   0.93371   0.93712   0.93806   0.94303
 Alpha virt. eigenvalues --    0.94377   0.95704   0.95806   0.96210   0.96495
 Alpha virt. eigenvalues --    0.97223   0.97284   0.97543   0.97716   0.98426
 Alpha virt. eigenvalues --    0.98481   0.99270   1.00019   1.01122   1.02159
 Alpha virt. eigenvalues --    1.02166   1.02410   1.02883   1.02884   1.03722
 Alpha virt. eigenvalues --    1.03892   1.04217   1.04702   1.04820   1.06056
 Alpha virt. eigenvalues --    1.06057   1.06393   1.06442   1.07790   1.07844
 Alpha virt. eigenvalues --    1.08020   1.08212   1.08611   1.09245   1.09876
 Alpha virt. eigenvalues --    1.11150   1.11850   1.12574   1.12631   1.12699
 Alpha virt. eigenvalues --    1.13070   1.13559   1.14088   1.14172   1.16207
 Alpha virt. eigenvalues --    1.17399   1.18418   1.18567   1.19711   1.21129
 Alpha virt. eigenvalues --    1.22223   1.22974   1.23401   1.23863   1.24344
 Alpha virt. eigenvalues --    1.24708   1.24744   1.25263   1.25627   1.25838
 Alpha virt. eigenvalues --    1.25868   1.25942   1.26263   1.26271   1.29112
 Alpha virt. eigenvalues --    1.29941   1.32115   1.32499   1.32885   1.34877
 Alpha virt. eigenvalues --    1.34905   1.37320   1.38925   1.39843   1.39889
 Alpha virt. eigenvalues --    1.41155   1.41185   1.41701   1.42521   1.43888
 Alpha virt. eigenvalues --    1.43888   1.44513   1.45046   1.45125   1.45226
 Alpha virt. eigenvalues --    1.45231   1.45433   1.45732   1.45795   1.46491
 Alpha virt. eigenvalues --    1.46556   1.46875   1.46876   1.47126   1.47127
 Alpha virt. eigenvalues --    1.47502   1.47503   1.48414   1.48519   1.48572
 Alpha virt. eigenvalues --    1.48583   1.50210   1.50216   1.50299   1.50328
 Alpha virt. eigenvalues --    1.51054   1.51317   1.51741   1.51970   1.52805
 Alpha virt. eigenvalues --    1.53053   1.54759   1.54769   1.56026   1.56121
 Alpha virt. eigenvalues --    1.56449   1.56696   1.56863   1.57014   1.57252
 Alpha virt. eigenvalues --    1.57348   1.58002   1.58060   1.58309   1.58711
 Alpha virt. eigenvalues --    1.58893   1.58937   1.59068   1.59198   1.59213
 Alpha virt. eigenvalues --    1.59261   1.59693   1.59693   1.60275   1.61039
 Alpha virt. eigenvalues --    1.61307   1.61863   1.62230   1.62300   1.62396
 Alpha virt. eigenvalues --    1.62775   1.63181   1.63485   1.63693   1.65022
 Alpha virt. eigenvalues --    1.65450   1.65553   1.65647   1.65887   1.65926
 Alpha virt. eigenvalues --    1.66026   1.66441   1.66445   1.66638   1.67475
 Alpha virt. eigenvalues --    1.67497   1.67660   1.68252   1.69083   1.69083
 Alpha virt. eigenvalues --    1.69393   1.70466   1.70791   1.70809   1.71115
 Alpha virt. eigenvalues --    1.71188   1.71395   1.72783   1.73318   1.73404
 Alpha virt. eigenvalues --    1.73582   1.74272   1.76310   1.76798   1.76826
 Alpha virt. eigenvalues --    1.77070   1.77346   1.77861   1.78373   1.78798
 Alpha virt. eigenvalues --    1.79244   1.79328   1.79349   1.79929   1.80770
 Alpha virt. eigenvalues --    1.81037   1.81044   1.82742   1.82743   1.83848
 Alpha virt. eigenvalues --    1.84171   1.86187   1.86232   1.86339   1.87528
 Alpha virt. eigenvalues --    1.87633   1.87867   1.88185   1.89073   1.89699
 Alpha virt. eigenvalues --    1.90080   1.90950   1.92131   1.92647   1.94418
 Alpha virt. eigenvalues --    1.94437   1.95713   1.95799   1.96442   1.97769
 Alpha virt. eigenvalues --    1.97772   2.00244   2.00272   2.00284   2.00690
 Alpha virt. eigenvalues --    2.00793   2.00885   2.02176   2.02191   2.02268
 Alpha virt. eigenvalues --    2.02803   2.02868   2.03968   2.04617   2.04817
 Alpha virt. eigenvalues --    2.04821   2.04827   2.05193   2.06894   2.07346
 Alpha virt. eigenvalues --    2.07441   2.07609   2.07981   2.08007   2.08418
 Alpha virt. eigenvalues --    2.09541   2.09646   2.09968   2.09976   2.10483
 Alpha virt. eigenvalues --    2.10685   2.10819   2.11552   2.12004   2.14198
 Alpha virt. eigenvalues --    2.14805   2.14958   2.15521   2.15989   2.16692
 Alpha virt. eigenvalues --    2.16699   2.16911   2.17585   2.18707   2.18954
 Alpha virt. eigenvalues --    2.20877   2.22734   2.23056   2.26160   2.26278
 Alpha virt. eigenvalues --    2.27205   2.27224   2.27314   2.27403   2.29363
 Alpha virt. eigenvalues --    2.29372   2.29663   2.29674   2.30438   2.30541
 Alpha virt. eigenvalues --    2.32808   2.32867   2.33746   2.33791   2.33913
 Alpha virt. eigenvalues --    2.34108   2.34820   2.34853   2.35567   2.35751
 Alpha virt. eigenvalues --    2.35751   2.35987   2.36129   2.36132   2.36679
 Alpha virt. eigenvalues --    2.36896   2.36900   2.38160   2.41064   2.41645
 Alpha virt. eigenvalues --    2.41649   2.41649   2.42271   2.42297   2.42848
 Alpha virt. eigenvalues --    2.42906   2.43773   2.43780   2.44408   2.45712
 Alpha virt. eigenvalues --    2.45897   2.46086   2.46090   2.46271   2.46304
 Alpha virt. eigenvalues --    2.47940   2.48749   2.48757   2.48878   2.48970
 Alpha virt. eigenvalues --    2.50123   2.50149   2.50154   2.50233   2.50878
 Alpha virt. eigenvalues --    2.51179   2.52972   2.53123   2.53237   2.53244
 Alpha virt. eigenvalues --    2.53598   2.53807   2.53839   2.55498   2.56289
 Alpha virt. eigenvalues --    2.56784   2.57013   2.57092   2.57351   2.57605
 Alpha virt. eigenvalues --    2.57958   2.59638   2.60254   2.60487   2.60736
 Alpha virt. eigenvalues --    2.60860   2.60893   2.61025   2.62392   2.63486
 Alpha virt. eigenvalues --    2.63904   2.64083   2.65861   2.66262   2.66617
 Alpha virt. eigenvalues --    2.66636   2.67464   2.68118   2.70726   2.71069
 Alpha virt. eigenvalues --    2.71102   2.71525   2.72468   2.73203   2.73243
 Alpha virt. eigenvalues --    2.73261   2.74196   2.74207   2.75057   2.75418
 Alpha virt. eigenvalues --    2.77463   2.77505   2.78354   2.78651   2.80079
 Alpha virt. eigenvalues --    2.80724   2.81720   2.81876   2.83381   2.83382
 Alpha virt. eigenvalues --    2.83544   2.84516   2.84536   2.84983   2.85007
 Alpha virt. eigenvalues --    2.86872   2.86910   2.87079   2.87087   2.89292
 Alpha virt. eigenvalues --    2.89492   2.90353   2.91771   2.91813   2.92312
 Alpha virt. eigenvalues --    2.94086   2.94125   2.95202   2.95211   2.96321
 Alpha virt. eigenvalues --    2.96466   2.97526   2.98863   3.00333   3.00944
 Alpha virt. eigenvalues --    3.01295   3.06943   3.07519   3.07528   3.08366
 Alpha virt. eigenvalues --    3.08963   3.09450   3.09688   3.09868   3.12572
 Alpha virt. eigenvalues --    3.12652   3.14118   3.14143   3.17129   3.17200
 Alpha virt. eigenvalues --    3.18933   3.18940   3.19951   3.20689   3.20835
 Alpha virt. eigenvalues --    3.21859   3.22877   3.23059   3.23106   3.23563
 Alpha virt. eigenvalues --    3.24316   3.24317   3.26886   3.27259   3.28426
 Alpha virt. eigenvalues --    3.28426   3.29841   3.29859   3.32164   3.32177
 Alpha virt. eigenvalues --    3.33512   3.34081   3.34206   3.34568   3.37248
 Alpha virt. eigenvalues --    3.37800   3.39671   3.44003   3.45100   3.49779
 Alpha virt. eigenvalues --    3.51628   3.70729   3.75204   3.75231   3.75344
 Alpha virt. eigenvalues --    3.75344   3.75760   3.75760   3.76896   3.76897
 Alpha virt. eigenvalues --    3.77458   3.77478   3.77715   3.77723   3.79792
 Alpha virt. eigenvalues --    3.79796   3.79956   3.79976   3.80789   3.80792
 Alpha virt. eigenvalues --    3.82423   3.82427   3.84151   3.84181   3.94819
 Alpha virt. eigenvalues --    3.94840   3.95440   3.95454   3.96883   4.00685
 Alpha virt. eigenvalues --    4.00686   4.03542   4.03573   4.04611   4.06247
 Alpha virt. eigenvalues --    4.07052   4.07780   4.08616   4.09818   4.09878
 Alpha virt. eigenvalues --    4.13446   4.13882   4.13941   4.14478   4.14535
 Alpha virt. eigenvalues --    4.19082   4.19983   4.21949   4.24469   4.26948
 Alpha virt. eigenvalues --    4.28557   4.30595   4.31609   4.36418   4.36513
 Alpha virt. eigenvalues --    4.58558   4.91698   4.93848   4.94548   4.94549
 Alpha virt. eigenvalues --    4.96332   4.96334   4.97360   4.97362   5.20860
 Alpha virt. eigenvalues --    5.20861   5.25934   5.25936   5.30752   5.30754
 Alpha virt. eigenvalues --    5.32203   5.33933   5.66407   5.66408   5.70435
 Alpha virt. eigenvalues --    5.70438   5.76850   5.76852   5.77682   5.81110
 Alpha virt. eigenvalues --    7.82096   7.82350  17.20220  17.22333  17.42516
 Alpha virt. eigenvalues --   17.43319  17.48538  17.53402  23.43216  23.67079
 Alpha virt. eigenvalues --   23.77475  23.77478  23.78263  23.78281  23.78344
 Alpha virt. eigenvalues --   23.78532  23.78532  23.79229  23.79388  23.80221
 Alpha virt. eigenvalues --   23.80301  23.81096  23.81106  23.83511  23.86004
 Alpha virt. eigenvalues --   23.86004  23.86900  23.86961  23.87458  23.87485
 Alpha virt. eigenvalues --   23.88642  23.88745  24.03831  24.04176  24.16417
 Alpha virt. eigenvalues --   24.16792  49.88252  49.88253  49.91412  49.91415
 Alpha virt. eigenvalues --   49.93275  49.93311  49.93570  49.94339 188.93496
 Alpha virt. eigenvalues --  188.93938
          Condensed to atoms (all electrons):
 Mulliken charges:
               1
     1  C   -0.232146
     2  C    0.237259
     3  C   -0.093068
     4  C   -0.306278
     5  S    0.313283
     6  O   -0.378311
     7  H    0.103896
     8  C   -0.232166
     9  C    0.237260
    10  C   -0.093076
    11  C   -0.306281
    12  S    0.313301
    13  O   -0.378302
    14  H    0.103896
    15  C   -0.009541
    16  H    0.107104
    17  H    0.107108
    18  C   -0.218245
    19  H    0.124462
    20  H    0.124475
    21  C   -0.235276
    22  H    0.105800
    23  H    0.105785
    24  C   -0.223859
    25  H    0.116002
    26  H    0.116002
    27  C    0.035305
    28  H    0.085913
    29  H    0.085911
    30  O   -0.383821
    31  C   -0.000061
    32  H    0.093299
    33  H    0.093298
    34  C    0.002125
    35  H    0.096284
    36  H    0.096281
    37  O   -0.390586
    38  C    0.001485
    39  H    0.096988
    40  H    0.096988
    41  C   -0.008184
    42  H    0.093687
    43  H    0.093688
    44  O   -0.370263
    45  C   -0.101782
    46  H    0.088859
    47  H    0.115348
    48  H    0.088860
    49  C   -0.009546
    50  H    0.107109
    51  H    0.107106
    52  C   -0.218243
    53  H    0.124478
    54  H    0.124459
    55  C   -0.235276
    56  H    0.105802
    57  H    0.105784
    58  C   -0.223858
    59  H    0.116006
    60  H    0.115998
    61  C    0.035305
    62  H    0.085906
    63  H    0.085919
    64  O   -0.383822
    65  C   -0.000061
    66  H    0.093300
    67  H    0.093297
    68  C    0.002126
    69  H    0.096283
    70  H    0.096282
    71  O   -0.390589
    72  C    0.001486
    73  H    0.096988
    74  H    0.096988
    75  C   -0.008184
    76  H    0.093687
    77  H    0.093687
    78  O   -0.370263
    79  C   -0.101781
    80  H    0.088859
    81  H    0.115348
    82  H    0.088859
    83  H    0.125927
    84  H    0.125924
 Sum of Mulliken charges =  -0.00000
 Mulliken charges with hydrogens summed into heavy atoms:
               1
     1  C   -0.232146
     2  C    0.237259
     3  C    0.010828
     4  C   -0.180351
     5  S    0.313283
     6  O   -0.378311
     8  C   -0.232166
     9  C    0.237260
    10  C    0.010820
    11  C   -0.180357
    12  S    0.313301
    13  O   -0.378302
    15  C    0.204671
    18  C    0.030693
    21  C   -0.023691
    24  C    0.008145
    27  C    0.207129
    30  O   -0.383821
    31  C    0.186536
    34  C    0.194691
    37  O   -0.390586
    38  C    0.195461
    41  C    0.179191
    44  O   -0.370263
    45  C    0.191285
    49  C    0.204668
    52  C    0.030694
    55  C   -0.023689
    58  C    0.008146
    61  C    0.207130
    64  O   -0.383822
    65  C    0.186536
    68  C    0.194692
    71  O   -0.390589
    72  C    0.195462
    75  C    0.179191
    78  O   -0.370263
    79  C    0.191286
 Electronic spatial extent (au):  <R**2>=         109191.8415
 Charge=             -0.0000 electrons
 Dipole moment (field-independent basis, Debye):
    X=              0.0002    Y=             -0.0000    Z=              0.0012  Tot=              0.0012
 Quadrupole moment (field-independent basis, Debye-Ang):
   XX=           -196.1763   YY=           -235.9233   ZZ=           -250.1199
   XY=             35.9245   XZ=             -0.0274   YZ=              0.0055
 Traceless Quadrupole moment (field-independent basis, Debye-Ang):
   XX=             31.2302   YY=             -8.5168   ZZ=            -22.7134
   XY=             35.9245   XZ=             -0.0274   YZ=              0.0055
 Octapole moment (field-independent basis, Debye-Ang**2):
  XXX=              0.0220  YYY=              0.0060  ZZZ=              0.0080  XYY=             -0.0062
  XXY=             -0.0186  XXZ=              0.1263  XZZ=              0.0001  YZZ=             -0.0021
  YYZ=             -0.0047  XYZ=             -0.0102
 Hexadecapole moment (field-independent basis, Debye-Ang**3):
 XXXX=        -111865.1791 YYYY=          -3027.9559 ZZZZ=           -416.2050 XXXY=           5901.3897
 XXXZ=             -6.4344 YYYX=            -53.7769 YYYZ=              0.0791 ZZZX=              0.0135
 ZZZY=             -0.0297 XXYY=         -24452.8465 XXZZ=         -23029.8075 YYZZ=           -647.7471
 XXYZ=              0.8301 YYXZ=              0.0534 ZZXY=            -11.6008
 N-N= 3.913041278976D+03 E-N=-1.368134388392D+04  KE= 2.485544486381D+03
 No NMR shielding tensors so no spin-rotation constants.
 Leave Link  601 at Tue Mar 31 10:01:25 2020, MaxMem=  6710886400 cpu:               6.1 elap:               0.9
 (Enter /apps/gaussian/g16-a03/l9999.exe)
 1\1\GINC-CX1-141-15-1\FOpt\RB3LYP\6-311G(d,p)\C28H46O8S2\NS5018\31-Mar
 -2020\0\\#p opt b3lyp/6-311g**\\P.gjf\\0,1\C,-0.5894116551,0.146008015
 3,0.0391690449\C,-1.270710084,1.3538143588,0.0524916385\C,-2.688637402
 1,1.2233093632,0.0861266407\C,-3.0848290496,-0.082659885,0.0983430459\
 S,-1.74898219,-1.1762025792,0.069400891\O,-0.5694152197,2.5230316335,0
 .0334382141\H,-3.3785217703,2.054262815,0.1004962981\C,0.8379196355,-0
 .0699846825,0.0060997371\C,1.5192571134,-1.2777756526,-0.0072191086\C,
 2.9371815116,-1.1472183027,-0.0408634336\C,3.3333234003,0.1587661391,-
 0.0531105211\S,1.9974436123,1.2522548061,-0.024124031\O,0.8180185757,-
 2.4470199017,0.0118137327\H,3.6271019088,-1.9781413558,-0.055252292\C,
 -1.2992739561,3.7513574171,0.0472884962\H,-1.9203783136,3.8015301822,0
 .9510133108\H,-1.9618083652,3.7969375066,-0.8267678138\C,-0.2961731864
 ,4.8932730464,0.0209826784\H,0.3688905275,4.7945112431,0.8847931505\H,
 0.3280451665,4.78991419,-0.8722696657\C,-0.9748837323,6.2675705038,0.0
 331592199\H,-1.6479498517,6.34989072,-0.8297709865\H,-1.6078636547,6.3
 541412878,0.9255157097\C,0.0287973791,7.4250616745,0.0074426601\H,0.65
 90882202,7.3565353215,-0.8854020495\H,0.6990257055,7.3608710747,0.8710
 363107\C,-0.6427703024,8.7900959774,0.0192906421\H,-1.3060548673,8.900
 9721459,-0.8534581881\H,-1.2655600685,8.9055417565,0.9208093749\O,0.36
 35451646,9.7885374804,-0.0062410809\C,-0.1490937637,11.1068635668,0.00
 21921406\H,-0.7906786373,11.2878690704,-0.8724512401\H,-0.7500641617,1
 1.2922892625,0.9043267179\C,1.0335235322,12.0590449394,-0.0272234452\H
 ,1.6342875145,11.8754025581,-0.9292836501\H,1.6748382163,11.8799480404
 ,0.8474158361\O,0.5202123222,13.3781105824,-0.0188775391\C,1.526051919
 2,14.3739785502,-0.0443055056\H,2.1466900129,14.2843048688,-0.94709627
 08\H,2.1871627903,14.2887934615,0.829731068\C,0.8343212999,15.72558498
 9,-0.0319635439\H,0.2121864215,15.8139466692,0.8710212688\H,0.17171286
 88,15.80946136,-0.906123471\O,1.839490333,16.719472282,-0.057364665\C,
 1.3170919512,18.0317897915,-0.0488019028\H,0.7237617192,18.2251562303,
 0.8566368047\H,2.1647805137,18.717268444,-0.0698381409\H,0.6831520007,
 18.2206300244,-0.9272720688\C,1.5479528232,-3.6753078159,-0.0017136574
 \H,2.2104608695,-3.7206373448,0.8723743239\H,2.1690860435,-3.725648369
 6,-0.9054089483\C,0.5449078591,-4.8172652831,0.0248230382\H,-0.0793673
 789,-4.7136982435,0.9180106103\H,-0.1201097776,-4.7187634827,-0.839053
 7782\C,1.2236986002,-6.1915313283,0.0130523418\H,1.8964991174,-6.27366
 54653,0.8762109662\H,1.8569614973,-6.2781905069,-0.8790904089\C,0.2200
 773392,-7.3490599162,0.0386278663\H,-0.4497850502,-7.2851604651,-0.825
 2774028\H,-0.4106157015,-7.280319469,0.9311704446\C,0.8917214423,-8.71
 40611909,0.0273875586\H,1.5151340836,-8.8295493919,-0.8736954431\H,1.5
 544128732,-8.8248439602,0.9005988538\O,-0.1145628394,-9.712549412,0.05
 23182568\C,0.398142965,-11.0308542966,0.0443511842\H,0.9996659868,-11.
 2163595207,-0.8573984224\H,1.039212427,-11.2117208893,0.91940105\C,-0.
 7844388512,-11.9831019064,0.0731562797\H,-1.4252880628,-11.8040511764,
 -0.801833627\H,-1.385702755,-11.7994727487,0.9748854803\O,-0.271066171
 8,-13.3021482862,0.0651180789\C,-1.2768670612,-14.2980688746,0.0901171
 069\H,-1.9375627216,-14.2129646207,-0.7842413611\H,-1.8979442282,-14.2
 083744154,0.9926037539\C,-0.5850693642,-15.6496457572,0.0781818002\H,0
 .0771206597,-15.7334445152,0.9526663393\H,0.0375069001,-15.7380244502,
 -0.8244970107\O,-1.5902009732,-16.6435823821,0.1031485205\C,-1.0677357
 711,-17.9558752426,0.0948889769\H,-0.4342052351,-18.1446490309,0.97366
 88921\H,-1.9154011027,-18.6413939947,0.1155496053\H,-0.4739645957,-18.
 1492503858,-0.8102587647\H,-4.0918770032,-0.468893009,0.1228697789\H,4
 .3403620529,0.5450261576,-0.077666301\\Version=ES64L-G16RevA.03\State=
 1-A\HF=-2493.2303389\RMSD=3.991e-09\RMSF=2.301e-06\Dipole=0.000027,0.0
 000654,0.0004556\Quadrupole=-8.468,25.3525654,-16.8845654,-25.4075677,
 -0.1402302,0.4719677\PG=C01 [X(C28H46O8S2)]\\@


 I WOULD TAKE COUNSEL OF MYSELF.
 I WOULD STOP AND LOOK WITHIN
 AND LOOKING WITHIN, LOOK BACK, ALSO
 THAT I MAY LOOK AHEAD WITH CLEARER UNDERSTANDING
 OF THE WAY I HAVE BEEN MOVING, AND IN WHAT DIRECTION.
 I NEED TO KNOW IF I AM GOING FORWARD OR RETREATING,
 WHETHER I HAVE BEEN WASTING, OR ENJOYING
 THE PRECIOUS MOMENTS OF LIFE.  THERE HAVE BEEN FRICTIONS,
 ANNOYANCES AND SOMETIMES WRATH,
 BUT WERE THEY BECAUSE I WAS RIGHT AND OTHERS WRONG.....
 HAVE I HAD MY THOUGHTS TOO SHARPLY FOCUSED
 ON THAT WHICH PLEASED ME, SERVED MY SELF-ESTEEM,
 UNDERGIRDED MY SECURITY,
 OF WHICH I DID NOT INQUIRE WHETHER IT SERVED OR HAMPERED OTHERS.....
 HAVE I BEEN TRYING TO STOP THE CLOCK
 TO HOLD THE WORLD
 IN PERPETUATION OF WHAT WAS AN IS ALREADY SLIPPING AWAY.....
 HAVE I BEEN CRITICAL OF OTHERS FOR WHAT REALLY NEEDED CHANGING IN ME...
 LET ME INDEED TAKE COUNSEL OF MYSELF
 AND SET MY DIRECTIONS STRAIGHT.

                          R.T. WESTON AS ADAPTED BY D. OSBORN 1967
 Job cpu time:       0 days  8 hours 37 minutes 50.7 seconds.
 Elapsed time:       0 days  1 hours  5 minutes 10.2 seconds.
 File lengths (MBytes):  RWF=    588 Int=      0 D2E=      0 Chk=     72 Scr=      1
 Normal termination of Gaussian 16 at Tue Mar 31 10:01:26 2020.
