 Entering Gaussian System, Link 0=g16
 Input=GS_20.gjf
 Output=GS_20.log
 Initial command:
 /apps/gaussian/g16-a03/l1.exe "/tmp/pbs.1165169[2].pbs/Gau-14572.inp" -scrdir="/tmp/pbs.1165169[2].pbs/"
 Entering Link 1 = /apps/gaussian/g16-a03/l1.exe PID=     14576.
  
 Copyright (c) 1988,1990,1992,1993,1995,1998,2003,2009,2016,
            Gaussian, Inc.  All Rights Reserved.
  
 This is part of the Gaussian(R) 16 program.  It is based on
 the Gaussian(R) 09 system (copyright 2009, Gaussian, Inc.),
 the Gaussian(R) 03 system (copyright 2003, Gaussian, Inc.),
 the Gaussian(R) 98 system (copyright 1998, Gaussian, Inc.),
 the Gaussian(R) 94 system (copyright 1995, Gaussian, Inc.),
 the Gaussian 92(TM) system (copyright 1992, Gaussian, Inc.),
 the Gaussian 90(TM) system (copyright 1990, Gaussian, Inc.),
 the Gaussian 88(TM) system (copyright 1988, Gaussian, Inc.),
 the Gaussian 86(TM) system (copyright 1986, Carnegie Mellon
 University), and the Gaussian 82(TM) system (copyright 1983,
 Carnegie Mellon University). Gaussian is a federally registered
 trademark of Gaussian, Inc.
  
 This software contains proprietary and confidential information,
 including trade secrets, belonging to Gaussian, Inc.
  
 This software is provided under written license and may be
 used, copied, transmitted, or stored only in accord with that
 written license.
  
 The following legend is applicable only to US Government
 contracts under FAR:
  
                    RESTRICTED RIGHTS LEGEND
  
 Use, reproduction and disclosure by the US Government is
 subject to restrictions as set forth in subparagraphs (a)
 and (c) of the Commercial Computer Software - Restricted
 Rights clause in FAR 52.227-19.
  
 Gaussian, Inc.
 340 Quinnipiac St., Bldg. 40, Wallingford CT 06492
  
  
 ---------------------------------------------------------------
 Warning -- This program may not be used in any manner that
 competes with the business of Gaussian, Inc. or will provide
 assistance to any competitor of Gaussian, Inc.  The licensee
 of this program is prohibited from giving any competitor of
 Gaussian, Inc. access to this program.  By using this program,
 the user acknowledges that Gaussian, Inc. is engaged in the
 business of creating and licensing software in the field of
 computational chemistry and represents and warrants to the
 licensee that it is not a competitor of Gaussian, Inc. and that
 it will not use this program in any manner prohibited above.
 ---------------------------------------------------------------
  

 Cite this work as:
 Gaussian 16, Revision A.03,
 M. J. Frisch, G. W. Trucks, H. B. Schlegel, G. E. Scuseria, 
 M. A. Robb, J. R. Cheeseman, G. Scalmani, V. Barone, 
 G. A. Petersson, H. Nakatsuji, X. Li, M. Caricato, A. V. Marenich, 
 J. Bloino, B. G. Janesko, R. Gomperts, B. Mennucci, H. P. Hratchian, 
 J. V. Ortiz, A. F. Izmaylov, J. L. Sonnenberg, D. Williams-Young, 
 F. Ding, F. Lipparini, F. Egidi, J. Goings, B. Peng, A. Petrone, 
 T. Henderson, D. Ranasinghe, V. G. Zakrzewski, J. Gao, N. Rega, 
 G. Zheng, W. Liang, M. Hada, M. Ehara, K. Toyota, R. Fukuda, 
 J. Hasegawa, M. Ishida, T. Nakajima, Y. Honda, O. Kitao, H. Nakai, 
 T. Vreven, K. Throssell, J. A. Montgomery, Jr., J. E. Peralta, 
 F. Ogliaro, M. J. Bearpark, J. J. Heyd, E. N. Brothers, K. N. Kudin, 
 V. N. Staroverov, T. A. Keith, R. Kobayashi, J. Normand, 
 K. Raghavachari, A. P. Rendell, J. C. Burant, S. S. Iyengar, 
 J. Tomasi, M. Cossi, J. M. Millam, M. Klene, C. Adamo, R. Cammi, 
 J. W. Ochterski, R. L. Martin, K. Morokuma, O. Farkas, 
 J. B. Foresman, and D. J. Fox, Gaussian, Inc., Wallingford CT, 2016.
 
 ******************************************
 Gaussian 16:  ES64L-G16RevA.03 25-Dec-2016
                 3-Mar-2020 
 ******************************************
 %mem=50GB
 %nprocshared=8
 Will use up to    8 processors via shared memory.
 -------------------------------------------
 #p opt=modredundant pop=MKUFF b3lyp/lanl2dz
 -------------------------------------------
 1/18=120,19=15,26=3,38=1/1,3;
 2/9=110,12=2,17=6,18=5,40=1/2;
 3/5=6,6=3,11=2,25=1,30=1,71=1,74=-5/1,2,3;
 4//1;
 5/5=2,38=5/2;
 6/7=2,8=2,9=2,10=2,15=8,20=4,28=1/1,2;
 7//1,2,3,16;
 1/18=20,19=15,26=3/3(2);
 2/9=110/2;
 99//99;
 2/9=110/2;
 3/5=6,6=3,11=2,25=1,30=1,71=1,74=-5/1,2,3;
 4/5=5,16=3,69=1/1;
 5/5=2,38=5/2;
 7//1,2,3,16;
 1/18=20,19=15,26=3/3(-5);
 2/9=110/2;
 6/7=2,8=2,9=2,10=2,15=8,19=2,20=4,28=1/1,2;
 99/9=1/99;
 Leave Link    1 at Tue Mar  3 11:49:17 2020, MaxMem=  6710886400 cpu:               0.3 elap:               0.0
 (Enter /apps/gaussian/g16-a03/l101.exe)
 ---------------------
 O3G_1m_0sc_Sn_pop.gjf
 ---------------------
 Symbolic Z-matrix:
 Charge =  0 Multiplicity = 1
 C                     0.152     0.706    -0.001 
 C                     1.38181   1.31649  -0.19033 
 C                     1.34486   2.7384   -0.1312 
 C                     0.08691   3.21008   0.10315 
 S                    -1.07401   1.94026   0.25614 
 O                     2.48823   0.54949  -0.40851 
 H                     2.20735   3.37666  -0.25516 
 C                    -0.152    -0.706    -0.001 
 C                    -1.38181  -1.31649  -0.19033 
 C                    -1.34585  -2.7384   -0.13137 
 C                    -0.08691  -3.21008   0.10315 
 S                     1.07383  -1.94123   0.25716 
 O                    -2.48806  -0.54952  -0.40949 
 H                    -2.20718  -3.3777   -0.25611 
 C                     3.73691   1.208    -0.59931 
 H                     3.99935   1.80439   0.28131 
 H                     3.69701   1.86949  -1.47263 
 C                     4.7801    0.12805  -0.81921 
 H                     4.8157   -0.54037   0.05256 
 H                     4.51387  -0.47539  -1.69843 
 O                     6.01795   0.78653  -1.00815 
 C                     7.10116  -0.09943  -1.22775 
 H                     7.23331  -0.77754  -0.37298 
 H                     6.93148  -0.71256  -2.12397 
 C                     8.3514    0.74196  -1.41204 
 H                     8.51912   1.35608  -0.51544 
 H                     8.21845   1.42103  -2.26562 
 O                     9.43166  -0.144    -1.63113 
 C                     10.67164   0.51345  -1.81946 
 H                     10.93377   1.11791  -0.94051 
 H                     10.63309   1.18286  -2.69069 
 C                     11.72867  -0.55347  -2.04126 
 H                     11.46342  -1.1589   -2.92072 
 H                     11.76525  -1.22389  -1.16974 
 O                     12.96454   0.10501  -2.22986 
 C                     14.03689  -0.78798  -2.44785 
 H                     13.87952  -1.39796  -3.34912 
 H                     14.93654  -0.18654  -2.58061 
 H                     14.18237  -1.46316  -1.59223 
 C                    -3.73675  -1.20903  -0.60026 
 H                    -3.99935  -1.80439   0.28131 
 H                    -3.69701  -1.86949  -1.47263 
 C                    -4.7801   -0.12805  -0.81921 
 H                    -4.8157    0.53938   0.05259 
 H                    -4.5137    0.47436  -1.69938 
 O                    -6.01795  -0.78653  -1.00815 
 C                    -7.10116   0.09943  -1.22775 
 H                    -7.2333    0.77854  -0.37302 
 H                    -6.93148   0.71256  -2.12397 
 C                    -8.3514   -0.74196  -1.41204 
 H                    -8.52011  -1.35609  -0.51561 
 H                    -8.21845  -1.42103  -2.26562 
 O                    -9.43166   0.145    -1.63117 
 C                    -10.67164  -0.51245  -1.8195 
 H                    -10.93393  -1.11688  -0.93956 
 H                    -10.63309  -1.18186  -2.69072 
 C                    -11.72768   0.55447  -2.04113 
 H                    -11.46341   1.1599   -2.92076 
 H                    -11.76426   1.22489  -1.1696 
 O                    -12.96454  -0.10401  -2.2299 
 C                    -14.03689   0.78898  -2.44789 
 H                    -13.87952   1.39896  -3.34916 
 H                    -14.93671   0.18757  -2.57966 
 H                    -14.18138   1.46416  -1.59209 
 Sn                   -0.198     5.32669   0.23183 
 C                     0.81851   6.2865    1.89157 
 H                     1.85328   6.41315   1.65088 
 H                     0.37631   7.24381   2.07541 
 H                     0.72754   5.67742   2.76603 
 C                    -2.33649   5.31991   0.60021 
 H                    -2.83842   4.84911  -0.21924 
 H                    -2.54169   4.78123   1.50206 
 H                    -2.68482   6.32704   0.69966 
 C                     0.21689   6.41603  -1.59859 
 H                    -0.20519   7.39762  -1.53307 
 H                     1.27559   6.49182  -1.73664 
 H                    -0.21454   5.89734  -2.42791 
 Sn                    0.32421  -5.30531   0.25279 
 C                     1.93679  -6.17544  -0.91032 
 H                     2.86921  -5.99525  -0.41815 
 H                     1.7805   -7.23004  -1.00272 
 H                     1.95483  -5.73076  -1.8833 
 C                     1.06487  -5.82791   2.22458 
 H                     1.01221  -6.88868   2.3554 
 H                     2.08029  -5.50636   2.32067 
 H                     0.46618  -5.34648   2.96968 
 C                    -1.41241  -6.58191   0.00183 
 H                    -2.14525  -6.33645   0.74068 
 H                    -1.82513  -6.4342   -0.97446 
 H                    -1.12109  -7.6054    0.1144 
 
 The following ModRedundant input section has been read:
 D       5       1       8       9 F                                           
 
 ITRead=  0  0  0  0  0  0  0  0  0  0  0  0  0  0  0  0  0  0  0  0
 ITRead=  0  0  0  0  0  0  0  0  0  0  0  0  0  0  0  0  0  0  0  0
 ITRead=  0  0  0  0  0  0  0  0  0  0  0  0  0  0  0  0  0  0  0  0
 ITRead=  0  0  0  0  0  0  0  0  0  0  0  0  0  0  0  0  0  0  0  0
 ITRead=  0  0  0  0  0  0  0  0  0  0
 MicOpt= -1 -1 -1 -1 -1 -1 -1 -1 -1 -1 -1 -1 -1 -1 -1 -1 -1 -1 -1 -1
 MicOpt= -1 -1 -1 -1 -1 -1 -1 -1 -1 -1 -1 -1 -1 -1 -1 -1 -1 -1 -1 -1
 MicOpt= -1 -1 -1 -1 -1 -1 -1 -1 -1 -1 -1 -1 -1 -1 -1 -1 -1 -1 -1 -1
 MicOpt= -1 -1 -1 -1 -1 -1 -1 -1 -1 -1 -1 -1 -1 -1 -1 -1 -1 -1 -1 -1
 MicOpt= -1 -1 -1 -1 -1 -1 -1 -1 -1 -1
 NAtoms=     90 NQM=       90 NQMF=       0 NMMI=      0 NMMIF=      0
                NMic=       0 NMicF=      0.
                    Isotopes and Nuclear Properties:
 (Nuclear quadrupole moments (NQMom) in fm**2, nuclear magnetic moments (NMagM)
  in nuclear magnetons)

  Atom         1           2           3           4           5           6           7           8           9          10
 IAtWgt=          12          12          12          12          32          16           1          12          12          12
 AtmWgt=  12.0000000  12.0000000  12.0000000  12.0000000  31.9720718  15.9949146   1.0078250  12.0000000  12.0000000  12.0000000
 NucSpn=           0           0           0           0           0           0           1           0           0           0
 AtZEff=  -0.0000000  -0.0000000  -0.0000000  -0.0000000  -0.0000000  -0.0000000  -0.0000000  -0.0000000  -0.0000000  -0.0000000
 NQMom=    0.0000000   0.0000000   0.0000000   0.0000000   0.0000000   0.0000000   0.0000000   0.0000000   0.0000000   0.0000000
 NMagM=    0.0000000   0.0000000   0.0000000   0.0000000   0.0000000   0.0000000   2.7928460   0.0000000   0.0000000   0.0000000
 AtZNuc=   6.0000000   6.0000000   6.0000000   6.0000000  16.0000000   8.0000000   1.0000000   6.0000000   6.0000000   6.0000000

  Atom        11          12          13          14          15          16          17          18          19          20
 IAtWgt=          12          32          16           1          12           1           1          12           1           1
 AtmWgt=  12.0000000  31.9720718  15.9949146   1.0078250  12.0000000   1.0078250   1.0078250  12.0000000   1.0078250   1.0078250
 NucSpn=           0           0           0           1           0           1           1           0           1           1
 AtZEff=  -0.0000000  -0.0000000  -0.0000000  -0.0000000  -0.0000000  -0.0000000  -0.0000000  -0.0000000  -0.0000000  -0.0000000
 NQMom=    0.0000000   0.0000000   0.0000000   0.0000000   0.0000000   0.0000000   0.0000000   0.0000000   0.0000000   0.0000000
 NMagM=    0.0000000   0.0000000   0.0000000   2.7928460   0.0000000   2.7928460   2.7928460   0.0000000   2.7928460   2.7928460
 AtZNuc=   6.0000000  16.0000000   8.0000000   1.0000000   6.0000000   1.0000000   1.0000000   6.0000000   1.0000000   1.0000000

  Atom        21          22          23          24          25          26          27          28          29          30
 IAtWgt=          16          12           1           1          12           1           1          16          12           1
 AtmWgt=  15.9949146  12.0000000   1.0078250   1.0078250  12.0000000   1.0078250   1.0078250  15.9949146  12.0000000   1.0078250
 NucSpn=           0           0           1           1           0           1           1           0           0           1
 AtZEff=  -0.0000000  -0.0000000  -0.0000000  -0.0000000  -0.0000000  -0.0000000  -0.0000000  -0.0000000  -0.0000000  -0.0000000
 NQMom=    0.0000000   0.0000000   0.0000000   0.0000000   0.0000000   0.0000000   0.0000000   0.0000000   0.0000000   0.0000000
 NMagM=    0.0000000   0.0000000   2.7928460   2.7928460   0.0000000   2.7928460   2.7928460   0.0000000   0.0000000   2.7928460
 AtZNuc=   8.0000000   6.0000000   1.0000000   1.0000000   6.0000000   1.0000000   1.0000000   8.0000000   6.0000000   1.0000000

  Atom        31          32          33          34          35          36          37          38          39          40
 IAtWgt=           1          12           1           1          16          12           1           1           1          12
 AtmWgt=   1.0078250  12.0000000   1.0078250   1.0078250  15.9949146  12.0000000   1.0078250   1.0078250   1.0078250  12.0000000
 NucSpn=           1           0           1           1           0           0           1           1           1           0
 AtZEff=  -0.0000000  -0.0000000  -0.0000000  -0.0000000  -0.0000000  -0.0000000  -0.0000000  -0.0000000  -0.0000000  -0.0000000
 NQMom=    0.0000000   0.0000000   0.0000000   0.0000000   0.0000000   0.0000000   0.0000000   0.0000000   0.0000000   0.0000000
 NMagM=    2.7928460   0.0000000   2.7928460   2.7928460   0.0000000   0.0000000   2.7928460   2.7928460   2.7928460   0.0000000
 AtZNuc=   1.0000000   6.0000000   1.0000000   1.0000000   8.0000000   6.0000000   1.0000000   1.0000000   1.0000000   6.0000000

  Atom        41          42          43          44          45          46          47          48          49          50
 IAtWgt=           1           1          12           1           1          16          12           1           1          12
 AtmWgt=   1.0078250   1.0078250  12.0000000   1.0078250   1.0078250  15.9949146  12.0000000   1.0078250   1.0078250  12.0000000
 NucSpn=           1           1           0           1           1           0           0           1           1           0
 AtZEff=  -0.0000000  -0.0000000  -0.0000000  -0.0000000  -0.0000000  -0.0000000  -0.0000000  -0.0000000  -0.0000000  -0.0000000
 NQMom=    0.0000000   0.0000000   0.0000000   0.0000000   0.0000000   0.0000000   0.0000000   0.0000000   0.0000000   0.0000000
 NMagM=    2.7928460   2.7928460   0.0000000   2.7928460   2.7928460   0.0000000   0.0000000   2.7928460   2.7928460   0.0000000
 AtZNuc=   1.0000000   1.0000000   6.0000000   1.0000000   1.0000000   8.0000000   6.0000000   1.0000000   1.0000000   6.0000000

  Atom        51          52          53          54          55          56          57          58          59          60
 IAtWgt=           1           1          16          12           1           1          12           1           1          16
 AtmWgt=   1.0078250   1.0078250  15.9949146  12.0000000   1.0078250   1.0078250  12.0000000   1.0078250   1.0078250  15.9949146
 NucSpn=           1           1           0           0           1           1           0           1           1           0
 AtZEff=  -0.0000000  -0.0000000  -0.0000000  -0.0000000  -0.0000000  -0.0000000  -0.0000000  -0.0000000  -0.0000000  -0.0000000
 NQMom=    0.0000000   0.0000000   0.0000000   0.0000000   0.0000000   0.0000000   0.0000000   0.0000000   0.0000000   0.0000000
 NMagM=    2.7928460   2.7928460   0.0000000   0.0000000   2.7928460   2.7928460   0.0000000   2.7928460   2.7928460   0.0000000
 AtZNuc=   1.0000000   1.0000000   8.0000000   6.0000000   1.0000000   1.0000000   6.0000000   1.0000000   1.0000000   8.0000000

  Atom        61          62          63          64          65          66          67          68          69          70
 IAtWgt=          12           1           1           1         118          12           1           1           1          12
 AtmWgt=  12.0000000   1.0078250   1.0078250   1.0078250 117.9018000  12.0000000   1.0078250   1.0078250   1.0078250  12.0000000
 NucSpn=           0           1           1           1           0           0           1           1           1           0
 AtZEff=  -0.0000000  -0.0000000  -0.0000000  -0.0000000  -0.0000000  -0.0000000  -0.0000000  -0.0000000  -0.0000000  -0.0000000
 NQMom=    0.0000000   0.0000000   0.0000000   0.0000000   0.0000000   0.0000000   0.0000000   0.0000000   0.0000000   0.0000000
 NMagM=    0.0000000   2.7928460   2.7928460   2.7928460   0.0000000   0.0000000   2.7928460   2.7928460   2.7928460   0.0000000
 AtZNuc=   6.0000000   1.0000000   1.0000000   1.0000000  50.0000000   6.0000000   1.0000000   1.0000000   1.0000000   6.0000000

  Atom        71          72          73          74          75          76          77          78          79          80
 IAtWgt=           1           1           1          12           1           1           1         118          12           1
 AtmWgt=   1.0078250   1.0078250   1.0078250  12.0000000   1.0078250   1.0078250   1.0078250 117.9018000  12.0000000   1.0078250
 NucSpn=           1           1           1           0           1           1           1           0           0           1
 AtZEff=  -0.0000000  -0.0000000  -0.0000000  -0.0000000  -0.0000000  -0.0000000  -0.0000000  -0.0000000  -0.0000000  -0.0000000
 NQMom=    0.0000000   0.0000000   0.0000000   0.0000000   0.0000000   0.0000000   0.0000000   0.0000000   0.0000000   0.0000000
 NMagM=    2.7928460   2.7928460   2.7928460   0.0000000   2.7928460   2.7928460   2.7928460   0.0000000   0.0000000   2.7928460
 AtZNuc=   1.0000000   1.0000000   1.0000000   6.0000000   1.0000000   1.0000000   1.0000000  50.0000000   6.0000000   1.0000000

  Atom        81          82          83          84          85          86          87          88          89          90
 IAtWgt=           1           1          12           1           1           1          12           1           1           1
 AtmWgt=   1.0078250   1.0078250  12.0000000   1.0078250   1.0078250   1.0078250  12.0000000   1.0078250   1.0078250   1.0078250
 NucSpn=           1           1           0           1           1           1           0           1           1           1
 AtZEff=  -0.0000000  -0.0000000  -0.0000000  -0.0000000  -0.0000000  -0.0000000  -0.0000000  -0.0000000  -0.0000000  -0.0000000
 NQMom=    0.0000000   0.0000000   0.0000000   0.0000000   0.0000000   0.0000000   0.0000000   0.0000000   0.0000000   0.0000000
 NMagM=    2.7928460   2.7928460   0.0000000   2.7928460   2.7928460   2.7928460   0.0000000   2.7928460   2.7928460   2.7928460
 AtZNuc=   1.0000000   1.0000000   6.0000000   1.0000000   1.0000000   1.0000000   6.0000000   1.0000000   1.0000000   1.0000000
 Leave Link  101 at Tue Mar  3 11:49:18 2020, MaxMem=  6710886400 cpu:               7.0 elap:               0.9
 (Enter /apps/gaussian/g16-a03/l103.exe)

 GradGradGradGradGradGradGradGradGradGradGradGradGradGradGradGradGradGrad
 Berny optimization.
 Initialization pass.
                           ----------------------------
                           !    Initial Parameters    !
                           ! (Angstroms and Degrees)  !
 --------------------------                            --------------------------
 ! Name  Definition              Value          Derivative Info.                !
 --------------------------------------------------------------------------------
 ! R1    R(1,2)                  1.386          estimate D2E/DX2                !
 ! R2    R(1,5)                  1.7586         estimate D2E/DX2                !
 ! R3    R(1,8)                  1.4444         estimate D2E/DX2                !
 ! R4    R(2,3)                  1.4236         estimate D2E/DX2                !
 ! R5    R(2,6)                  1.3638         estimate D2E/DX2                !
 ! R6    R(3,4)                  1.3638         estimate D2E/DX2                !
 ! R7    R(3,7)                  1.0801         estimate D2E/DX2                !
 ! R8    R(4,5)                  1.7273         estimate D2E/DX2                !
 ! R9    R(4,65)                 2.1396         estimate D2E/DX2                !
 ! R10   R(6,15)                 1.4245         estimate D2E/DX2                !
 ! R11   R(8,9)                  1.386          estimate D2E/DX2                !
 ! R12   R(8,12)                 1.7593         estimate D2E/DX2                !
 ! R13   R(9,10)                 1.4236         estimate D2E/DX2                !
 ! R14   R(9,13)                 1.3638         estimate D2E/DX2                !
 ! R15   R(10,11)                1.3647         estimate D2E/DX2                !
 ! R16   R(10,14)                1.0799         estimate D2E/DX2                !
 ! R17   R(11,12)                1.7266         estimate D2E/DX2                !
 ! R18   R(11,78)                2.1404         estimate D2E/DX2                !
 ! R19   R(13,40)                1.425          estimate D2E/DX2                !
 ! R20   R(15,16)                1.0955         estimate D2E/DX2                !
 ! R21   R(15,17)                1.0963         estimate D2E/DX2                !
 ! R22   R(15,18)                1.5175         estimate D2E/DX2                !
 ! R23   R(18,19)                1.0991         estimate D2E/DX2                !
 ! R24   R(18,20)                1.0991         estimate D2E/DX2                !
 ! R25   R(18,21)                1.4148         estimate D2E/DX2                !
 ! R26   R(21,22)                1.4165         estimate D2E/DX2                !
 ! R27   R(22,23)                1.0991         estimate D2E/DX2                !
 ! R28   R(22,24)                1.0991         estimate D2E/DX2                !
 ! R29   R(22,25)                1.5182         estimate D2E/DX2                !
 ! R30   R(25,26)                1.0996         estimate D2E/DX2                !
 ! R31   R(25,27)                1.0988         estimate D2E/DX2                !
 ! R32   R(25,28)                1.4142         estimate D2E/DX2                !
 ! R33   R(28,29)                1.4161         estimate D2E/DX2                !
 ! R34   R(29,30)                1.0985         estimate D2E/DX2                !
 ! R35   R(29,31)                1.0994         estimate D2E/DX2                !
 ! R36   R(29,32)                1.5182         estimate D2E/DX2                !
 ! R37   R(32,33)                1.1002         estimate D2E/DX2                !
 ! R38   R(32,34)                1.1002         estimate D2E/DX2                !
 ! R39   R(32,35)                1.413          estimate D2E/DX2                !
 ! R40   R(35,36)                1.4124         estimate D2E/DX2                !
 ! R41   R(36,37)                1.0996         estimate D2E/DX2                !
 ! R42   R(36,38)                1.0903         estimate D2E/DX2                !
 ! R43   R(36,39)                1.0996         estimate D2E/DX2                !
 ! R44   R(40,41)                1.0957         estimate D2E/DX2                !
 ! R45   R(40,42)                1.0949         estimate D2E/DX2                !
 ! R46   R(40,43)                1.5182         estimate D2E/DX2                !
 ! R47   R(43,44)                1.0985         estimate D2E/DX2                !
 ! R48   R(43,45)                1.0993         estimate D2E/DX2                !
 ! R49   R(43,46)                1.4148         estimate D2E/DX2                !
 ! R50   R(46,47)                1.4165         estimate D2E/DX2                !
 ! R51   R(47,48)                1.0996         estimate D2E/DX2                !
 ! R52   R(47,49)                1.0991         estimate D2E/DX2                !
 ! R53   R(47,50)                1.5182         estimate D2E/DX2                !
 ! R54   R(50,51)                1.0996         estimate D2E/DX2                !
 ! R55   R(50,52)                1.0988         estimate D2E/DX2                !
 ! R56   R(50,53)                1.4148         estimate D2E/DX2                !
 ! R57   R(53,54)                1.4161         estimate D2E/DX2                !
 ! R58   R(54,55)                1.0993         estimate D2E/DX2                !
 ! R59   R(54,56)                1.0994         estimate D2E/DX2                !
 ! R60   R(54,57)                1.5175         estimate D2E/DX2                !
 ! R61   R(57,58)                1.1001         estimate D2E/DX2                !
 ! R62   R(57,59)                1.1002         estimate D2E/DX2                !
 ! R63   R(57,60)                1.4139         estimate D2E/DX2                !
 ! R64   R(60,61)                1.4124         estimate D2E/DX2                !
 ! R65   R(61,62)                1.0996         estimate D2E/DX2                !
 ! R66   R(61,63)                1.0903         estimate D2E/DX2                !
 ! R67   R(61,64)                1.0996         estimate D2E/DX2                !
 ! R68   R(65,66)                2.1701         estimate D2E/DX2                !
 ! R69   R(65,70)                2.17           estimate D2E/DX2                !
 ! R70   R(65,74)                2.1701         estimate D2E/DX2                !
 ! R71   R(66,67)                1.0699         estimate D2E/DX2                !
 ! R72   R(66,68)                1.0704         estimate D2E/DX2                !
 ! R73   R(66,69)                1.0696         estimate D2E/DX2                !
 ! R74   R(70,71)                1.0701         estimate D2E/DX2                !
 ! R75   R(70,72)                1.0703         estimate D2E/DX2                !
 ! R76   R(70,73)                1.0703         estimate D2E/DX2                !
 ! R77   R(74,75)                1.0705         estimate D2E/DX2                !
 ! R78   R(74,76)                1.0703         estimate D2E/DX2                !
 ! R79   R(74,77)                1.0691         estimate D2E/DX2                !
 ! R80   R(78,79)                2.1703         estimate D2E/DX2                !
 ! R81   R(78,83)                2.1702         estimate D2E/DX2                !
 ! R82   R(78,87)                2.1699         estimate D2E/DX2                !
 ! R83   R(79,80)                1.0696         estimate D2E/DX2                !
 ! R84   R(79,81)                1.0701         estimate D2E/DX2                !
 ! R85   R(79,82)                1.0699         estimate D2E/DX2                !
 ! R86   R(83,84)                1.0701         estimate D2E/DX2                !
 ! R87   R(83,85)                1.0694         estimate D2E/DX2                !
 ! R88   R(83,86)                1.0702         estimate D2E/DX2                !
 ! R89   R(87,88)                1.0692         estimate D2E/DX2                !
 ! R90   R(87,89)                1.0702         estimate D2E/DX2                !
 ! R91   R(87,90)                1.0701         estimate D2E/DX2                !
 ! A1    A(2,1,5)              109.2339         estimate D2E/DX2                !
 ! A2    A(2,1,8)              128.1236         estimate D2E/DX2                !
 ! A3    A(5,1,8)              122.6425         estimate D2E/DX2                !
 ! A4    A(1,2,3)              114.2828         estimate D2E/DX2                !
 ! A5    A(1,2,6)              119.6024         estimate D2E/DX2                !
 ! A6    A(3,2,6)              126.1147         estimate D2E/DX2                !
 ! A7    A(2,3,4)              112.1188         estimate D2E/DX2                !
 ! A8    A(2,3,7)              124.3836         estimate D2E/DX2                !
 ! A9    A(4,3,7)              123.4976         estimate D2E/DX2                !
 ! A10   A(3,4,5)              112.3899         estimate D2E/DX2                !
 ! A11   A(3,4,65)             118.3803         estimate D2E/DX2                !
 ! A12   A(5,4,65)             129.2298         estimate D2E/DX2                !
 ! A13   A(1,5,4)               91.9745         estimate D2E/DX2                !
 ! A14   A(2,6,15)             118.2013         estimate D2E/DX2                !
 ! A15   A(1,8,9)              128.1236         estimate D2E/DX2                !
 ! A16   A(1,8,12)             122.6656         estimate D2E/DX2                !
 ! A17   A(9,8,12)             109.2108         estimate D2E/DX2                !
 ! A18   A(8,9,10)             114.3231         estimate D2E/DX2                !
 ! A19   A(8,9,13)             119.6024         estimate D2E/DX2                !
 ! A20   A(10,9,13)            126.0745         estimate D2E/DX2                !
 ! A21   A(9,10,11)            112.0639         estimate D2E/DX2                !
 ! A22   A(9,10,14)            124.4979         estimate D2E/DX2                !
 ! A23   A(11,10,14)           123.4382         estimate D2E/DX2                !
 ! A24   A(10,11,12)           112.4271         estimate D2E/DX2                !
 ! A25   A(10,11,78)           121.839          estimate D2E/DX2                !
 ! A26   A(12,11,78)           125.7339         estimate D2E/DX2                !
 ! A27   A(8,12,11)             91.9751         estimate D2E/DX2                !
 ! A28   A(9,13,40)            118.1656         estimate D2E/DX2                !
 ! A29   A(6,15,16)            110.7316         estimate D2E/DX2                !
 ! A30   A(6,15,17)            110.7155         estimate D2E/DX2                !
 ! A31   A(6,15,18)            107.0381         estimate D2E/DX2                !
 ! A32   A(16,15,17)           108.6994         estimate D2E/DX2                !
 ! A33   A(16,15,18)           109.8304         estimate D2E/DX2                !
 ! A34   A(17,15,18)           109.8151         estimate D2E/DX2                !
 ! A35   A(15,18,19)           109.8841         estimate D2E/DX2                !
 ! A36   A(15,18,20)           109.8841         estimate D2E/DX2                !
 ! A37   A(15,18,21)           106.8333         estimate D2E/DX2                !
 ! A38   A(19,18,20)           107.9648         estimate D2E/DX2                !
 ! A39   A(19,18,21)           111.1397         estimate D2E/DX2                !
 ! A40   A(20,18,21)           111.1397         estimate D2E/DX2                !
 ! A41   A(18,21,22)           113.4955         estimate D2E/DX2                !
 ! A42   A(21,22,23)           110.9326         estimate D2E/DX2                !
 ! A43   A(21,22,24)           110.9326         estimate D2E/DX2                !
 ! A44   A(21,22,25)           107.5732         estimate D2E/DX2                !
 ! A45   A(23,22,24)           107.9724         estimate D2E/DX2                !
 ! A46   A(23,22,25)           109.7142         estimate D2E/DX2                !
 ! A47   A(24,22,25)           109.7142         estimate D2E/DX2                !
 ! A48   A(22,25,26)           109.642          estimate D2E/DX2                !
 ! A49   A(22,25,27)           109.7029         estimate D2E/DX2                !
 ! A50   A(22,25,28)           107.4968         estimate D2E/DX2                !
 ! A51   A(26,25,27)           107.8606         estimate D2E/DX2                !
 ! A52   A(26,25,28)           111.0815         estimate D2E/DX2                !
 ! A53   A(27,25,28)           111.054          estimate D2E/DX2                !
 ! A54   A(25,28,29)           113.4925         estimate D2E/DX2                !
 ! A55   A(28,29,30)           110.9786         estimate D2E/DX2                !
 ! A56   A(28,29,31)           110.9399         estimate D2E/DX2                !
 ! A57   A(28,29,32)           107.6274         estimate D2E/DX2                !
 ! A58   A(30,29,31)           107.9028         estimate D2E/DX2                !
 ! A59   A(30,29,32)           109.7231         estimate D2E/DX2                !
 ! A60   A(31,29,32)           109.6669         estimate D2E/DX2                !
 ! A61   A(29,32,33)           109.6129         estimate D2E/DX2                !
 ! A62   A(29,32,34)           109.6129         estimate D2E/DX2                !
 ! A63   A(29,32,35)           107.5165         estimate D2E/DX2                !
 ! A64   A(33,32,34)           107.8139         estimate D2E/DX2                !
 ! A65   A(33,32,35)           111.1394         estimate D2E/DX2                !
 ! A66   A(34,32,35)           111.1394         estimate D2E/DX2                !
 ! A67   A(32,35,36)           112.9567         estimate D2E/DX2                !
 ! A68   A(35,36,37)           111.6269         estimate D2E/DX2                !
 ! A69   A(35,36,38)           107.2479         estimate D2E/DX2                !
 ! A70   A(35,36,39)           111.6269         estimate D2E/DX2                !
 ! A71   A(37,36,38)           108.9234         estimate D2E/DX2                !
 ! A72   A(37,36,39)           108.4269         estimate D2E/DX2                !
 ! A73   A(38,36,39)           108.9234         estimate D2E/DX2                !
 ! A74   A(13,40,41)           110.7188         estimate D2E/DX2                !
 ! A75   A(13,40,42)           110.7349         estimate D2E/DX2                !
 ! A76   A(13,40,43)           106.976          estimate D2E/DX2                !
 ! A77   A(41,40,42)           108.7831         estimate D2E/DX2                !
 ! A78   A(41,40,43)           109.7669         estimate D2E/DX2                !
 ! A79   A(42,40,43)           109.8474         estimate D2E/DX2                !
 ! A80   A(40,43,44)           109.9013         estimate D2E/DX2                !
 ! A81   A(40,43,45)           109.8211         estimate D2E/DX2                !
 ! A82   A(40,43,46)           106.8069         estimate D2E/DX2                !
 ! A83   A(44,43,45)           108.0785         estimate D2E/DX2                !
 ! A84   A(44,43,46)           111.1254         estimate D2E/DX2                !
 ! A85   A(45,43,46)           111.1091         estimate D2E/DX2                !
 ! A86   A(43,46,47)           113.4955         estimate D2E/DX2                !
 ! A87   A(46,47,48)           110.9559         estimate D2E/DX2                !
 ! A88   A(46,47,49)           110.9326         estimate D2E/DX2                !
 ! A89   A(46,47,50)           107.5732         estimate D2E/DX2                !
 ! A90   A(48,47,49)           107.9303         estimate D2E/DX2                !
 ! A91   A(48,47,50)           109.7337         estimate D2E/DX2                !
 ! A92   A(49,47,50)           109.7142         estimate D2E/DX2                !
 ! A93   A(47,50,51)           109.6879         estimate D2E/DX2                !
 ! A94   A(47,50,52)           109.7029         estimate D2E/DX2                !
 ! A95   A(47,50,53)           107.4654         estimate D2E/DX2                !
 ! A96   A(51,50,52)           107.8596         estimate D2E/DX2                !
 ! A97   A(51,50,53)           111.0535         estimate D2E/DX2                !
 ! A98   A(52,50,53)           111.0697         estimate D2E/DX2                !
 ! A99   A(50,53,54)           113.461          estimate D2E/DX2                !
 ! A100  A(53,54,55)           110.9625         estimate D2E/DX2                !
 ! A101  A(53,54,56)           110.9399         estimate D2E/DX2                !
 ! A102  A(53,54,57)           107.6008         estimate D2E/DX2                !
 ! A103  A(55,54,56)           107.9335         estimate D2E/DX2                !
 ! A104  A(55,54,57)           109.7216         estimate D2E/DX2                !
 ! A105  A(56,54,57)           109.6805         estimate D2E/DX2                !
 ! A106  A(54,57,58)           109.6677         estimate D2E/DX2                !
 ! A107  A(54,57,59)           109.6266         estimate D2E/DX2                !
 ! A108  A(54,57,60)           107.5087         estimate D2E/DX2                !
 ! A109  A(58,57,59)           107.8213         estimate D2E/DX2                !
 ! A110  A(58,57,60)           111.0826         estimate D2E/DX2                !
 ! A111  A(59,57,60)           111.13           estimate D2E/DX2                !
 ! A112  A(57,60,61)           112.9755         estimate D2E/DX2                !
 ! A113  A(60,61,62)           111.6269         estimate D2E/DX2                !
 ! A114  A(60,61,63)           107.2479         estimate D2E/DX2                !
 ! A115  A(60,61,64)           111.5835         estimate D2E/DX2                !
 ! A116  A(62,61,63)           108.9684         estimate D2E/DX2                !
 ! A117  A(62,61,64)           108.4266         estimate D2E/DX2                !
 ! A118  A(63,61,64)           108.9242         estimate D2E/DX2                !
 ! A119  A(4,65,66)            114.9083         estimate D2E/DX2                !
 ! A120  A(4,65,70)             97.9521         estimate D2E/DX2                !
 ! A121  A(4,65,74)            114.8601         estimate D2E/DX2                !
 ! A122  A(66,65,70)           109.4612         estimate D2E/DX2                !
 ! A123  A(66,65,74)           109.4839         estimate D2E/DX2                !
 ! A124  A(70,65,74)           109.4612         estimate D2E/DX2                !
 ! A125  A(65,66,67)           109.4712         estimate D2E/DX2                !
 ! A126  A(65,66,68)           109.4758         estimate D2E/DX2                !
 ! A127  A(65,66,69)           109.4877         estimate D2E/DX2                !
 ! A128  A(67,66,68)           109.4096         estimate D2E/DX2                !
 ! A129  A(67,66,69)           109.4871         estimate D2E/DX2                !
 ! A130  A(68,66,69)           109.4958         estimate D2E/DX2                !
 ! A131  A(65,70,71)           109.4886         estimate D2E/DX2                !
 ! A132  A(65,70,72)           109.4838         estimate D2E/DX2                !
 ! A133  A(65,70,73)           109.4845         estimate D2E/DX2                !
 ! A134  A(71,70,72)           109.5048         estimate D2E/DX2                !
 ! A135  A(71,70,73)           109.4208         estimate D2E/DX2                !
 ! A136  A(72,70,73)           109.4448         estimate D2E/DX2                !
 ! A137  A(65,74,75)           109.4681         estimate D2E/DX2                !
 ! A138  A(65,74,76)           109.4776         estimate D2E/DX2                !
 ! A139  A(65,74,77)           109.4883         estimate D2E/DX2                !
 ! A140  A(75,74,76)           109.4484         estimate D2E/DX2                !
 ! A141  A(75,74,77)           109.466          estimate D2E/DX2                !
 ! A142  A(76,74,77)           109.4788         estimate D2E/DX2                !
 ! A143  A(11,78,79)           119.848          estimate D2E/DX2                !
 ! A144  A(11,78,83)           111.3953         estimate D2E/DX2                !
 ! A145  A(11,78,87)           114.4622         estimate D2E/DX2                !
 ! A146  A(79,78,83)            97.8625         estimate D2E/DX2                !
 ! A147  A(79,78,87)           107.2649         estimate D2E/DX2                !
 ! A148  A(83,78,87)           103.683          estimate D2E/DX2                !
 ! A149  A(78,79,80)           109.485          estimate D2E/DX2                !
 ! A150  A(78,79,81)           109.4426         estimate D2E/DX2                !
 ! A151  A(78,79,82)           109.4661         estimate D2E/DX2                !
 ! A152  A(80,79,81)           109.4547         estimate D2E/DX2                !
 ! A153  A(80,79,82)           109.4949         estimate D2E/DX2                !
 ! A154  A(81,79,82)           109.484          estimate D2E/DX2                !
 ! A155  A(78,83,84)           109.4504         estimate D2E/DX2                !
 ! A156  A(78,83,85)           109.4678         estimate D2E/DX2                !
 ! A157  A(78,83,86)           109.4704         estimate D2E/DX2                !
 ! A158  A(84,83,85)           109.4989         estimate D2E/DX2                !
 ! A159  A(84,83,86)           109.4681         estimate D2E/DX2                !
 ! A160  A(85,83,86)           109.4717         estimate D2E/DX2                !
 ! A161  A(78,87,88)           109.4847         estimate D2E/DX2                !
 ! A162  A(78,87,89)           109.448          estimate D2E/DX2                !
 ! A163  A(78,87,90)           109.4301         estimate D2E/DX2                !
 ! A164  A(88,87,89)           109.5353         estimate D2E/DX2                !
 ! A165  A(88,87,90)           109.48           estimate D2E/DX2                !
 ! A166  A(89,87,90)           109.4492         estimate D2E/DX2                !
 ! D1    D(5,1,2,3)              0.0            estimate D2E/DX2                !
 ! D2    D(5,1,2,6)            179.9517         estimate D2E/DX2                !
 ! D3    D(8,1,2,3)            180.0            estimate D2E/DX2                !
 ! D4    D(8,1,2,6)             -0.0483         estimate D2E/DX2                !
 ! D5    D(2,1,5,4)              0.0            estimate D2E/DX2                !
 ! D6    D(8,1,5,4)            180.0            estimate D2E/DX2                !
 ! D7    D(2,1,8,9)           -160.0            estimate D2E/DX2                !
 ! D8    D(2,1,8,12)            20.0387         estimate D2E/DX2                !
 ! D9    D(5,1,8,9)             20.0            Frozen                          !
 ! D10   D(5,1,8,12)          -159.9613         estimate D2E/DX2                !
 ! D11   D(1,2,3,4)              0.0            estimate D2E/DX2                !
 ! D12   D(1,2,3,7)            179.9357         estimate D2E/DX2                !
 ! D13   D(6,2,3,4)           -179.948          estimate D2E/DX2                !
 ! D14   D(6,2,3,7)             -0.0123         estimate D2E/DX2                !
 ! D15   D(1,2,6,15)          -179.9987         estimate D2E/DX2                !
 ! D16   D(3,2,6,15)            -0.0532         estimate D2E/DX2                !
 ! D17   D(2,3,4,5)              0.0            estimate D2E/DX2                !
 ! D18   D(2,3,4,65)           179.9696         estimate D2E/DX2                !
 ! D19   D(7,3,4,5)           -179.9364         estimate D2E/DX2                !
 ! D20   D(7,3,4,65)             0.0332         estimate D2E/DX2                !
 ! D21   D(3,4,5,1)              0.0            estimate D2E/DX2                !
 ! D22   D(65,4,5,1)          -179.9654         estimate D2E/DX2                !
 ! D23   D(3,4,65,66)          -64.1551         estimate D2E/DX2                !
 ! D24   D(3,4,65,70)         -179.9893         estimate D2E/DX2                !
 ! D25   D(3,4,65,74)           64.1948         estimate D2E/DX2                !
 ! D26   D(5,4,65,66)          115.8086         estimate D2E/DX2                !
 ! D27   D(5,4,65,70)           -0.0256         estimate D2E/DX2                !
 ! D28   D(5,4,65,74)         -115.8415         estimate D2E/DX2                !
 ! D29   D(2,6,15,16)           60.3535         estimate D2E/DX2                !
 ! D30   D(2,6,15,17)          -60.2859         estimate D2E/DX2                !
 ! D31   D(2,6,15,18)         -179.9523         estimate D2E/DX2                !
 ! D32   D(1,8,9,10)           180.0            estimate D2E/DX2                !
 ! D33   D(1,8,9,13)             0.0            estimate D2E/DX2                !
 ! D34   D(12,8,9,10)           -0.0345         estimate D2E/DX2                !
 ! D35   D(12,8,9,13)          179.9655         estimate D2E/DX2                !
 ! D36   D(1,8,12,11)         -179.9866         estimate D2E/DX2                !
 ! D37   D(9,8,12,11)            0.0457         estimate D2E/DX2                !
 ! D38   D(8,9,10,11)            0.0            estimate D2E/DX2                !
 ! D39   D(8,9,10,14)          180.0            estimate D2E/DX2                !
 ! D40   D(13,9,10,11)         180.0            estimate D2E/DX2                !
 ! D41   D(13,9,10,14)           0.0            estimate D2E/DX2                !
 ! D42   D(8,9,13,40)          180.0            estimate D2E/DX2                !
 ! D43   D(10,9,13,40)           0.0            estimate D2E/DX2                !
 ! D44   D(9,10,11,12)           0.0359         estimate D2E/DX2                !
 ! D45   D(9,10,11,78)         179.9685         estimate D2E/DX2                !
 ! D46   D(14,10,11,12)       -179.9641         estimate D2E/DX2                !
 ! D47   D(14,10,11,78)         -0.0315         estimate D2E/DX2                !
 ! D48   D(10,11,12,8)          -0.0474         estimate D2E/DX2                !
 ! D49   D(78,11,12,8)        -179.9769         estimate D2E/DX2                !
 ! D50   D(10,11,78,79)        129.5663         estimate D2E/DX2                !
 ! D51   D(10,11,78,83)       -117.2167         estimate D2E/DX2                !
 ! D52   D(10,11,78,87)         -0.0002         estimate D2E/DX2                !
 ! D53   D(12,11,78,79)        -50.5105         estimate D2E/DX2                !
 ! D54   D(12,11,78,83)         62.7065         estimate D2E/DX2                !
 ! D55   D(12,11,78,87)        179.923          estimate D2E/DX2                !
 ! D56   D(9,13,40,41)          60.3884         estimate D2E/DX2                !
 ! D57   D(9,13,40,42)         -60.3608         estimate D2E/DX2                !
 ! D58   D(9,13,40,43)         179.9605         estimate D2E/DX2                !
 ! D59   D(6,15,18,19)         -59.3294         estimate D2E/DX2                !
 ! D60   D(6,15,18,20)          59.3294         estimate D2E/DX2                !
 ! D61   D(6,15,18,21)         180.0            estimate D2E/DX2                !
 ! D62   D(16,15,18,19)         60.9419         estimate D2E/DX2                !
 ! D63   D(16,15,18,20)        179.6007         estimate D2E/DX2                !
 ! D64   D(16,15,18,21)        -59.7287         estimate D2E/DX2                !
 ! D65   D(17,15,18,19)       -179.5727         estimate D2E/DX2                !
 ! D66   D(17,15,18,20)        -60.9139         estimate D2E/DX2                !
 ! D67   D(17,15,18,21)         59.7567         estimate D2E/DX2                !
 ! D68   D(15,18,21,22)        180.0            estimate D2E/DX2                !
 ! D69   D(19,18,21,22)         60.1343         estimate D2E/DX2                !
 ! D70   D(20,18,21,22)        -60.1343         estimate D2E/DX2                !
 ! D71   D(18,21,22,23)        -60.0008         estimate D2E/DX2                !
 ! D72   D(18,21,22,24)         60.0008         estimate D2E/DX2                !
 ! D73   D(18,21,22,25)        180.0            estimate D2E/DX2                !
 ! D74   D(21,22,25,26)         59.139          estimate D2E/DX2                !
 ! D75   D(21,22,25,27)        -59.1368         estimate D2E/DX2                !
 ! D76   D(21,22,25,28)        180.0            estimate D2E/DX2                !
 ! D77   D(23,22,25,26)        -61.6299         estimate D2E/DX2                !
 ! D78   D(23,22,25,27)       -179.9057         estimate D2E/DX2                !
 ! D79   D(23,22,25,28)         59.2311         estimate D2E/DX2                !
 ! D80   D(24,22,25,26)        179.9079         estimate D2E/DX2                !
 ! D81   D(24,22,25,27)         61.6321         estimate D2E/DX2                !
 ! D82   D(24,22,25,28)        -59.2311         estimate D2E/DX2                !
 ! D83   D(22,25,28,29)       -179.9559         estimate D2E/DX2                !
 ! D84   D(26,25,28,29)        -60.0053         estimate D2E/DX2                !
 ! D85   D(27,25,28,29)         60.0352         estimate D2E/DX2                !
 ! D86   D(25,28,29,30)         59.9242         estimate D2E/DX2                !
 ! D87   D(25,28,29,31)        -60.0251         estimate D2E/DX2                !
 ! D88   D(25,28,29,32)        179.9953         estimate D2E/DX2                !
 ! D89   D(28,29,32,33)         59.0314         estimate D2E/DX2                !
 ! D90   D(28,29,32,34)        -59.1164         estimate D2E/DX2                !
 ! D91   D(28,29,32,35)        179.9575         estimate D2E/DX2                !
 ! D92   D(30,29,32,33)        179.8942         estimate D2E/DX2                !
 ! D93   D(30,29,32,34)         61.7464         estimate D2E/DX2                !
 ! D94   D(30,29,32,35)        -59.1797         estimate D2E/DX2                !
 ! D95   D(31,29,32,33)        -61.7516         estimate D2E/DX2                !
 ! D96   D(31,29,32,34)       -179.8994         estimate D2E/DX2                !
 ! D97   D(31,29,32,35)         59.1745         estimate D2E/DX2                !
 ! D98   D(29,32,35,36)        180.0            estimate D2E/DX2                !
 ! D99   D(33,32,35,36)        -60.0386         estimate D2E/DX2                !
 ! D100  D(34,32,35,36)         60.0386         estimate D2E/DX2                !
 ! D101  D(32,35,36,37)         60.7659         estimate D2E/DX2                !
 ! D102  D(32,35,36,38)       -180.0            estimate D2E/DX2                !
 ! D103  D(32,35,36,39)        -60.7659         estimate D2E/DX2                !
 ! D104  D(13,40,43,44)        -59.3525         estimate D2E/DX2                !
 ! D105  D(13,40,43,45)         59.4177         estimate D2E/DX2                !
 ! D106  D(13,40,43,46)       -179.9999         estimate D2E/DX2                !
 ! D107  D(41,40,43,44)         60.8307         estimate D2E/DX2                !
 ! D108  D(41,40,43,45)        179.6008         estimate D2E/DX2                !
 ! D109  D(41,40,43,46)        -59.8167         estimate D2E/DX2                !
 ! D110  D(42,40,43,44)       -179.6004         estimate D2E/DX2                !
 ! D111  D(42,40,43,45)        -60.8302         estimate D2E/DX2                !
 ! D112  D(42,40,43,46)         59.7523         estimate D2E/DX2                !
 ! D113  D(40,43,46,47)       -179.9606         estimate D2E/DX2                !
 ! D114  D(44,43,46,47)         60.1773         estimate D2E/DX2                !
 ! D115  D(45,43,46,47)        -60.2051         estimate D2E/DX2                !
 ! D116  D(43,46,47,48)        -59.9632         estimate D2E/DX2                !
 ! D117  D(43,46,47,49)         60.0008         estimate D2E/DX2                !
 ! D118  D(43,46,47,50)        180.0            estimate D2E/DX2                !
 ! D119  D(46,47,50,51)         59.1652         estimate D2E/DX2                !
 ! D120  D(46,47,50,52)        -59.1368         estimate D2E/DX2                !
 ! D121  D(46,47,50,53)        180.0            estimate D2E/DX2                !
 ! D122  D(48,47,50,51)        -61.6434         estimate D2E/DX2                !
 ! D123  D(48,47,50,52)       -179.9454         estimate D2E/DX2                !
 ! D124  D(48,47,50,53)         59.1914         estimate D2E/DX2                !
 ! D125  D(49,47,50,51)        179.9341         estimate D2E/DX2                !
 ! D126  D(49,47,50,52)         61.6321         estimate D2E/DX2                !
 ! D127  D(49,47,50,53)        -59.2311         estimate D2E/DX2                !
 ! D128  D(47,50,53,54)       -179.9559         estimate D2E/DX2                !
 ! D129  D(51,50,53,54)        -59.9853         estimate D2E/DX2                !
 ! D130  D(52,50,53,54)         60.0456         estimate D2E/DX2                !
 ! D131  D(50,53,54,55)         59.9522         estimate D2E/DX2                !
 ! D132  D(50,53,54,56)        -60.0251         estimate D2E/DX2                !
 ! D133  D(50,53,54,57)        179.9953         estimate D2E/DX2                !
 ! D134  D(53,54,57,58)         59.0731         estimate D2E/DX2                !
 ! D135  D(53,54,57,59)        -59.1245         estimate D2E/DX2                !
 ! D136  D(53,54,57,60)        179.9576         estimate D2E/DX2                !
 ! D137  D(55,54,57,58)        179.8993         estimate D2E/DX2                !
 ! D138  D(55,54,57,59)         61.7017         estimate D2E/DX2                !
 ! D139  D(55,54,57,60)        -59.2163         estimate D2E/DX2                !
 ! D140  D(56,54,57,58)        -61.7018         estimate D2E/DX2                !
 ! D141  D(56,54,57,59)       -179.8993         estimate D2E/DX2                !
 ! D142  D(56,54,57,60)         59.1827         estimate D2E/DX2                !
 ! D143  D(54,57,60,61)        180.0            estimate D2E/DX2                !
 ! D144  D(58,57,60,61)        -60.01           estimate D2E/DX2                !
 ! D145  D(59,57,60,61)         60.0324         estimate D2E/DX2                !
 ! D146  D(57,60,61,62)         60.7659         estimate D2E/DX2                !
 ! D147  D(57,60,61,63)       -179.945          estimate D2E/DX2                !
 ! D148  D(57,60,61,64)        -60.7348         estimate D2E/DX2                !
 ! D149  D(4,65,66,67)          78.8333         estimate D2E/DX2                !
 ! D150  D(4,65,66,68)        -161.2394         estimate D2E/DX2                !
 ! D151  D(4,65,66,69)         -41.1964         estimate D2E/DX2                !
 ! D152  D(70,65,66,67)       -172.149          estimate D2E/DX2                !
 ! D153  D(70,65,66,68)        -52.2217         estimate D2E/DX2                !
 ! D154  D(70,65,66,69)         67.8214         estimate D2E/DX2                !
 ! D155  D(74,65,66,67)        -52.1598         estimate D2E/DX2                !
 ! D156  D(74,65,66,68)         67.7675         estimate D2E/DX2                !
 ! D157  D(74,65,66,69)       -172.1894         estimate D2E/DX2                !
 ! D158  D(4,65,70,71)         -60.1295         estimate D2E/DX2                !
 ! D159  D(4,65,70,72)          59.93           estimate D2E/DX2                !
 ! D160  D(4,65,70,73)         179.9135         estimate D2E/DX2                !
 ! D161  D(66,65,70,71)        179.8451         estimate D2E/DX2                !
 ! D162  D(66,65,70,72)        -60.0955         estimate D2E/DX2                !
 ! D163  D(66,65,70,73)         59.888          estimate D2E/DX2                !
 ! D164  D(74,65,70,71)         59.8419         estimate D2E/DX2                !
 ! D165  D(74,65,70,72)        179.9014         estimate D2E/DX2                !
 ! D166  D(74,65,70,73)        -60.1151         estimate D2E/DX2                !
 ! D167  D(4,65,74,75)         164.2095         estimate D2E/DX2                !
 ! D168  D(4,65,74,76)         -75.8164         estimate D2E/DX2                !
 ! D169  D(4,65,74,77)          44.2073         estimate D2E/DX2                !
 ! D170  D(66,65,74,75)        -64.7717         estimate D2E/DX2                !
 ! D171  D(66,65,74,76)         55.2024         estimate D2E/DX2                !
 ! D172  D(66,65,74,77)        175.2261         estimate D2E/DX2                !
 ! D173  D(70,65,74,75)         55.2175         estimate D2E/DX2                !
 ! D174  D(70,65,74,76)        175.1916         estimate D2E/DX2                !
 ! D175  D(70,65,74,77)        -64.7847         estimate D2E/DX2                !
 ! D176  D(11,78,79,80)         80.7584         estimate D2E/DX2                !
 ! D177  D(11,78,79,81)       -159.2709         estimate D2E/DX2                !
 ! D178  D(11,78,79,82)        -39.2759         estimate D2E/DX2                !
 ! D179  D(83,78,79,80)        -39.4951         estimate D2E/DX2                !
 ! D180  D(83,78,79,81)         80.4757         estimate D2E/DX2                !
 ! D181  D(83,78,79,82)       -159.5294         estimate D2E/DX2                !
 ! D182  D(87,78,79,80)       -146.5315         estimate D2E/DX2                !
 ! D183  D(87,78,79,81)        -26.5608         estimate D2E/DX2                !
 ! D184  D(87,78,79,82)         93.4342         estimate D2E/DX2                !
 ! D185  D(11,78,83,84)        164.9842         estimate D2E/DX2                !
 ! D186  D(11,78,83,85)        -74.9968         estimate D2E/DX2                !
 ! D187  D(11,78,83,86)         45.0012         estimate D2E/DX2                !
 ! D188  D(79,78,83,84)        -68.5946         estimate D2E/DX2                !
 ! D189  D(79,78,83,85)         51.4244         estimate D2E/DX2                !
 ! D190  D(79,78,83,86)        171.4224         estimate D2E/DX2                !
 ! D191  D(87,78,83,84)         41.4029         estimate D2E/DX2                !
 ! D192  D(87,78,83,85)        161.4219         estimate D2E/DX2                !
 ! D193  D(87,78,83,86)        -78.5801         estimate D2E/DX2                !
 ! D194  D(11,78,87,88)        -58.6701         estimate D2E/DX2                !
 ! D195  D(11,78,87,89)         61.4024         estimate D2E/DX2                !
 ! D196  D(11,78,87,90)       -178.6639         estimate D2E/DX2                !
 ! D197  D(79,78,87,88)        165.7709         estimate D2E/DX2                !
 ! D198  D(79,78,87,89)        -74.1565         estimate D2E/DX2                !
 ! D199  D(79,78,87,90)         45.7771         estimate D2E/DX2                !
 ! D200  D(83,78,87,88)         62.8797         estimate D2E/DX2                !
 ! D201  D(83,78,87,89)       -177.0478         estimate D2E/DX2                !
 ! D202  D(83,78,87,90)        -57.1141         estimate D2E/DX2                !
 --------------------------------------------------------------------------------
 Trust Radius=3.00D-01 FncErr=1.00D-07 GrdErr=1.00D-06 EigMax=2.50D+02 EigMin=1.00D-04
 Number of steps in this run=    469 maximum allowed number of steps=    540.
 GradGradGradGradGradGradGradGradGradGradGradGradGradGradGradGradGradGrad

 Leave Link  103 at Tue Mar  3 11:49:18 2020, MaxMem=  6710886400 cpu:               0.2 elap:               0.0
 (Enter /apps/gaussian/g16-a03/l202.exe)
 Stoichiometry    C28H50O8S2Sn2
 Framework group  C1[X(C28H50O8S2Sn2)]
 Deg. of freedom   264
 Full point group                 C1      NOp   1
 Largest Abelian subgroup         C1      NOp   1
 Largest concise Abelian subgroup C1      NOp   1
                         Standard orientation:                         
 ---------------------------------------------------------------------
 Center     Atomic      Atomic             Coordinates (Angstroms)
 Number     Number       Type             X           Y           Z
 ---------------------------------------------------------------------
      1          6           0        0.114617   -0.715942   -0.501151
      2          6           0        1.330063   -1.355483   -0.315022
      3          6           0        1.260793   -2.775775   -0.383316
      4          6           0       -0.007407   -3.217173   -0.621429
      5         16           0       -1.138991   -1.920289   -0.766939
      6          8           0        2.453507   -0.615296   -0.091276
      7          1           0        2.108425   -3.434300   -0.262944
      8          6           0       -0.157149    0.702586   -0.492258
      9          6           0       -1.372873    1.339700   -0.299728
     10          6           0       -1.304502    2.760775   -0.349538
     11          6           0       -0.034973    3.205152   -0.580281
     12         16           0        1.096685    1.911202   -0.741759
     13          8           0       -2.496468    0.596742   -0.086153
     14          1           0       -2.151142    3.418712   -0.221191
     15          6           0        3.686728   -1.303290    0.096028
     16          1           0        3.936164   -1.899851   -0.788257
     17          1           0        3.631134   -1.969282    0.965054
     18          6           0        4.754081   -0.248812    0.323477
     19          1           0        4.805530    0.424202   -0.543961
     20          1           0        4.501014    0.354887    1.206396
     21          8           0        5.976466   -0.936512    0.508907
     22          6           0        7.079417   -0.076884    0.734833
     23          1           0        7.227595    0.603506   -0.115485
     24          1           0        6.923079    0.534192    1.634872
     25          6           0        8.310035   -0.947699    0.914444
     26          1           0        8.464384   -1.559720    0.014020
     27          1           0        8.161024   -1.629022    1.763563
     28          8           0        9.410031   -0.087991    1.139859
     29          6           0       10.634577   -0.774707    1.324688
     30          1           0       10.883513   -1.379337    0.442029
     31          1           0       10.580153   -1.448639    2.191571
     32          6           0       11.715466    0.266412    1.553963
     33          1           0       11.463423    0.872082    2.437138
     34          1           0       11.767939    0.941397    0.686781
     35          8           0       12.935881   -0.421235    1.739052
     36          6           0       14.028134    0.445679    1.963405
     37          1           0       13.884028    1.053294    2.868483
     38          1           0       14.913752   -0.176939    2.092824
     39          1           0       14.189572    1.122842    1.112220
     40          6           0       -3.729949    1.283289    0.108116
     41          1           0       -3.978282    1.890114   -0.769768
     42          1           0       -3.675825    1.937059    0.984734
     43          6           0       -4.797814    0.224966    0.319506
     44          1           0       -4.847964   -0.435872   -0.556593
     45          1           0       -4.545847   -0.388979    1.195939
     46          8           0       -6.020477    0.910244    0.511944
     47          6           0       -7.123750    0.047800    0.725213
     48          1           0       -7.270693   -0.622630   -0.133944
     49          1           0       -6.968726   -0.574765    1.617573
     50          6           0       -8.354638    0.916254    0.914167
     51          1           0       -8.508657    1.539793    0.021607
     52          1           0       -8.206879    1.586633    1.772169
     53          8           0       -9.454975    0.052737    1.126958
     54          6           0      -10.679797    0.737038    1.318779
     55          1           0      -10.927614    1.352911    0.442594
     56          1           0      -10.626652    1.399801    2.194310
     57          6           0      -11.760026   -0.306949    1.532932
     58          1           0      -11.510259   -0.923869    2.408809
     59          1           0      -11.811221   -0.970760    0.657093
     60          8           0      -12.981703    0.378305    1.725201
     61          6           0      -14.074276   -0.491404    1.936819
     62          1           0      -13.931492   -1.110573    2.834244
     63          1           0      -14.960259    0.129486    2.071924
     64          1           0      -14.233473   -1.157622    1.076617
     65         50           0       -0.340348   -5.325878   -0.763873
     66          6           0        0.655260   -6.297931   -2.429142
     67          1           0        1.686700   -6.449655   -2.188664
     68          1           0        0.191506   -7.243720   -2.619398
     69          1           0        0.578827   -5.681338   -3.299730
     70          6           0       -2.477861   -5.268027   -1.133454
     71          1           0       -2.969535   -4.791181   -0.311290
     72          1           0       -2.670079   -4.719041   -2.031942
     73          1           0       -2.848956   -6.266306   -1.239578
     74          6           0        0.048283   -6.436092    1.059759
     75          1           0       -0.395987   -7.407369    0.987684
     76          1           0        1.104880   -6.536857    1.197941
     77          1           0       -0.371828   -5.913037    1.892139
     78         50           0        0.423860    5.291387   -0.716215
     79          6           0        2.054986    6.117095    0.453417
     80          1           0        2.983425    5.918867   -0.039361
     81          1           0        1.922686    7.174365    0.552490
     82          1           0        2.062183    5.665889    1.423522
     83          6           0        1.177675    5.809611   -2.684171
     84          1           0        1.149285    6.872120   -2.808201
     85          1           0        2.185586    5.465635   -2.781723
     86          1           0        0.568730    5.346731   -3.432693
     87          6           0       -1.283423    6.605579   -0.458078
     88          1           0       -2.021114    6.381616   -1.198919
     89          1           0       -1.700116    6.461055    0.517004
     90          1           0       -0.968789    7.622864   -0.563899
 ---------------------------------------------------------------------
 Rotational constants (GHZ):           0.0426800           0.0178607           0.0131701
 Leave Link  202 at Tue Mar  3 11:49:18 2020, MaxMem=  6710886400 cpu:               0.0 elap:               0.0
 (Enter /apps/gaussian/g16-a03/l301.exe)
 Standard basis: LANL2DZ (5D, 7F)
 Ernie: Thresh=  0.10000D-02 Tol=  0.10000D-05 Strict=F.
 There are   456 symmetry adapted cartesian basis functions of A   symmetry.
 There are   456 symmetry adapted basis functions of A   symmetry.
   456 basis functions,  1148 primitive gaussians,   456 cartesian basis functions
   151 alpha electrons      151 beta electrons
       nuclear repulsion energy      3843.6476727525 Hartrees.



 Warning!  S  atom    5 may be hypervalent but has no d functions.
 Warning!  S  atom   12 may be hypervalent but has no d functions.



 IExCor=  402 DFT=T Ex+Corr=B3LYP ExCW=0 ScaHFX=  0.200000
 ScaDFX=  0.800000  0.720000  1.000000  0.810000 ScalE2=  1.000000  1.000000
 IRadAn=      5 IRanWt=     -1 IRanGd=            0 ICorTp=0 IEmpDi=  4
 NAtoms=   90 NActive=   90 NUniq=   90 SFac= 1.00D+00 NAtFMM=   60 NAOKFM=T Big=T
 Integral buffers will be    131072 words long.
 Raffenetti 2 integral format.
 Two-electron integral symmetry is turned on.
 Leave Link  301 at Tue Mar  3 11:49:18 2020, MaxMem=  6710886400 cpu:               0.5 elap:               0.1
 (Enter /apps/gaussian/g16-a03/l302.exe)
 NPDir=0 NMtPBC=     1 NCelOv=     1 NCel=       1 NClECP=     1 NCelD=      1
         NCelK=      1 NCelE2=     1 NClLst=     1 CellRange=     0.0.
 One-electron integrals computed using PRISM.
 One-electron integral symmetry used in STVInt
   1 Symmetry operations used in ECPInt.
 ECPInt:  NShTT=   43956 NPrTT=  293396 LenC2=   25404 LenP2D=   85667.
 LDataN:  DoStor=T MaxTD1= 4 Len=   56
 NBasis=   456 RedAO= T EigKep=  1.04D-03  NBF=   456
 NBsUse=   456 1.00D-06 EigRej= -1.00D+00 NBFU=   456
 Precomputing XC quadrature grid using
 IXCGrd= 4 IRadAn=           5 IRanWt=          -1 IRanGd=           0 AccXCQ= 0.00D+00.
 Defaulting to unpruned grid for atomic number  50.
 Defaulting to unpruned grid for atomic number  50.
 Generated NRdTot=       0 NPtTot=           0 NUsed=           0 NTot=          32
 NSgBfM=   388   388   388   388   388 MxSgAt=    90 MxSgA2=    90.
 Leave Link  302 at Tue Mar  3 11:49:21 2020, MaxMem=  6710886400 cpu:              24.0 elap:               3.0
 (Enter /apps/gaussian/g16-a03/l303.exe)
 DipDrv:  MaxL=1.
 Leave Link  303 at Tue Mar  3 11:49:21 2020, MaxMem=  6710886400 cpu:               1.0 elap:               0.1
 (Enter /apps/gaussian/g16-a03/l401.exe)
 ExpMin= 6.30D-02 ExpMax= 7.82D+03 ExpMxC= 2.73D+02 IAcc=3 IRadAn=         5 AccDes= 0.00D+00
 Harris functional with IExCor=  402 and IRadAn=       5 diagonalized for initial guess.
 HarFok:  IExCor=  402 AccDes= 0.00D+00 IRadAn=         5 IDoV= 1 UseB2=F ITyADJ=14
 ICtDFT=  3500011 ScaDFX=  1.000000  1.000000  1.000000  1.000000
 Defaulting to unpruned grid for atomic number  50.
 FoFCou: FMM=F IPFlag=           0 FMFlag=      100000 FMFlg1=        2001
         NFxFlg=           0 DoJE=T BraDBF=F KetDBF=T FulRan=T
         wScrn=  0.000000 ICntrl=       500 IOpCl=  0 I1Cent=   200000004 NGrid=           0
         NMat0=    1 NMatS0=      1 NMatT0=    0 NMatD0=    1 NMtDS0=    0 NMtDT0=    0
 Petite list used in FoFCou.
 Harris En= -1725.68959694899    
 JPrj=0 DoOrth=F DoCkMO=F.
 Leave Link  401 at Tue Mar  3 11:49:29 2020, MaxMem=  6710886400 cpu:              59.9 elap:               7.6
 (Enter /apps/gaussian/g16-a03/l502.exe)
 Integral symmetry usage will be decided dynamically.
 Closed shell SCF:
 Using DIIS extrapolation, IDIIS=  1040.
 NGot=  6710886400 LenX=  6710460430 LenY=  6710252038
 Requested convergence on RMS density matrix=1.00D-08 within 128 cycles.
 Requested convergence on MAX density matrix=1.00D-06.
 Requested convergence on             energy=1.00D-06.
 No special actions if energy rises.
 Fock matrices will be formed incrementally for  20 cycles.
 Integral accuracy reduced to 1.0D-05 until final iterations.

 Cycle   1  Pass 0  IDiag  1:
 FoFJK:  IHMeth= 1 ICntrl=       0 DoSepK=F KAlg= 0 I1Cent=           0 FoldK=F
 IRaf= 720000000 NMat=       1 IRICut=       1 DoRegI=T DoRafI=F ISym2E= 0 IDoP0=0 IntGTp=1.
 FoFCou: FMM=T IPFlag=           0 FMFlag=      100000 FMFlg1=        2001
         NFxFlg=           0 DoJE=F BraDBF=F KetDBF=F FulRan=T
         wScrn=  0.000000 ICntrl=         0 IOpCl=  0 I1Cent=           0 NGrid=           0
         NMat0=    1 NMatS0=      1 NMatT0=    0 NMatD0=    1 NMtDS0=    0 NMtDT0=    0
 Symmetry not used in FoFCou.
 FMM levels:  10  Number of levels for PrismC:   9
 Defaulting to unpruned grid for atomic number  50.
 Defaulting to unpruned grid for atomic number  50.
 Defaulting to unpruned grid for atomic number  50.
 Defaulting to unpruned grid for atomic number  50.
 Defaulting to unpruned grid for atomic number  50.
 Defaulting to unpruned grid for atomic number  50.
 Defaulting to unpruned grid for atomic number  50.
 Defaulting to unpruned grid for atomic number  50.
 E= -1723.96193083806    
 DIIS: error= 6.95D-02 at cycle   1 NSaved=   1.
 NSaved= 1 IEnMin= 1 EnMin= -1723.96193083806     IErMin= 1 ErrMin= 6.95D-02
 ErrMax= 6.95D-02  0.00D+00 EMaxC= 1.00D-01 BMatC= 1.18D+00 BMatP= 1.18D+00
 IDIUse=3 WtCom= 3.05D-01 WtEn= 6.95D-01
 Coeff-Com:  0.100D+01
 Coeff-En:   0.100D+01
 Coeff:      0.100D+01
 Gap=     0.082 Goal=   None    Shift=    0.000
 GapD=    0.082 DampG=0.500 DampE=0.500 DampFc=0.2500 IDamp=-1.
 Damping current iteration by 2.50D-01
 RMSDP=6.46D-03 MaxDP=3.16D-01              OVMax= 2.96D-01

 Cycle   2  Pass 0  IDiag  1:
 RMSU=  1.58D-03    CP:  9.83D-01
 E= -1724.52114914648     Delta-E=       -0.559218308422 Rises=F Damp=T
 DIIS: error= 2.98D-02 at cycle   2 NSaved=   2.
 NSaved= 2 IEnMin= 2 EnMin= -1724.52114914648     IErMin= 2 ErrMin= 2.98D-02
 ErrMax= 2.98D-02  0.00D+00 EMaxC= 1.00D-01 BMatC= 2.48D-01 BMatP= 1.18D+00
 IDIUse=3 WtCom= 7.02D-01 WtEn= 2.98D-01
 Coeff-Com: -0.773D+00 0.177D+01
 Coeff-En:   0.000D+00 0.100D+01
 Coeff:     -0.542D+00 0.154D+01
 Gap=     0.146 Goal=   None    Shift=    0.000
 RMSDP=2.06D-03 MaxDP=1.22D-01 DE=-5.59D-01 OVMax= 1.88D-01

 Cycle   3  Pass 0  IDiag  1:
 RMSU=  1.35D-03    CP:  9.65D-01  1.95D+00
 E= -1725.38084479523     Delta-E=       -0.859695648753 Rises=F Damp=F
 DIIS: error= 1.37D-02 at cycle   3 NSaved=   3.
 NSaved= 3 IEnMin= 3 EnMin= -1725.38084479523     IErMin= 3 ErrMin= 1.37D-02
 ErrMax= 1.37D-02  0.00D+00 EMaxC= 1.00D-01 BMatC= 4.17D-02 BMatP= 2.48D-01
 IDIUse=3 WtCom= 8.63D-01 WtEn= 1.37D-01
 Coeff-Com: -0.984D-01 0.457D+00 0.642D+00
 Coeff-En:   0.000D+00 0.000D+00 0.100D+01
 Coeff:     -0.849D-01 0.394D+00 0.691D+00
 Gap=     0.146 Goal=   None    Shift=    0.000
 RMSDP=7.51D-04 MaxDP=5.16D-02 DE=-8.60D-01 OVMax= 5.81D-02

 Cycle   4  Pass 0  IDiag  1:
 RMSU=  5.71D-04    CP:  9.72D-01  1.69D+00  8.59D-01
 E= -1725.41953453361     Delta-E=       -0.038689738377 Rises=F Damp=F
 DIIS: error= 7.35D-03 at cycle   4 NSaved=   4.
 NSaved= 4 IEnMin= 4 EnMin= -1725.41953453361     IErMin= 4 ErrMin= 7.35D-03
 ErrMax= 7.35D-03  0.00D+00 EMaxC= 1.00D-01 BMatC= 1.07D-02 BMatP= 4.17D-02
 IDIUse=3 WtCom= 9.26D-01 WtEn= 7.35D-02
 Coeff-Com:  0.967D-01-0.739D-01 0.463D+00 0.514D+00
 Coeff-En:   0.000D+00 0.000D+00 0.147D+00 0.853D+00
 Coeff:      0.896D-01-0.684D-01 0.440D+00 0.539D+00
 Gap=     0.142 Goal=   None    Shift=    0.000
 RMSDP=4.08D-04 MaxDP=3.75D-02 DE=-3.87D-02 OVMax= 4.72D-02

 Cycle   5  Pass 0  IDiag  1:
 RMSU=  1.72D-04    CP:  9.70D-01  1.71D+00  9.12D-01  3.70D-01
 E= -1725.42959139079     Delta-E=       -0.010056857182 Rises=F Damp=F
 DIIS: error= 3.68D-03 at cycle   5 NSaved=   5.
 NSaved= 5 IEnMin= 5 EnMin= -1725.42959139079     IErMin= 5 ErrMin= 3.68D-03
 ErrMax= 3.68D-03  0.00D+00 EMaxC= 1.00D-01 BMatC= 1.48D-03 BMatP= 1.07D-02
 IDIUse=3 WtCom= 9.63D-01 WtEn= 3.68D-02
 Coeff-Com:  0.645D-01-0.695D-01 0.254D+00 0.362D+00 0.389D+00
 Coeff-En:   0.000D+00 0.000D+00 0.000D+00 0.119D+00 0.881D+00
 Coeff:      0.621D-01-0.669D-01 0.244D+00 0.353D+00 0.407D+00
 Gap=     0.144 Goal=   None    Shift=    0.000
 RMSDP=1.37D-04 MaxDP=1.21D-02 DE=-1.01D-02 OVMax= 1.81D-02

 Cycle   6  Pass 0  IDiag  1:
 RMSU=  5.13D-05    CP:  9.70D-01  1.71D+00  9.11D-01  5.32D-01  4.98D-01
 E= -1725.43123272088     Delta-E=       -0.001641330093 Rises=F Damp=F
 DIIS: error= 7.59D-04 at cycle   6 NSaved=   6.
 NSaved= 6 IEnMin= 6 EnMin= -1725.43123272088     IErMin= 6 ErrMin= 7.59D-04
 ErrMax= 7.59D-04  0.00D+00 EMaxC= 1.00D-01 BMatC= 7.39D-05 BMatP= 1.48D-03
 IDIUse=3 WtCom= 9.92D-01 WtEn= 7.59D-03
 Coeff-Com:  0.237D-01-0.301D-01 0.760D-01 0.124D+00 0.229D+00 0.577D+00
 Coeff-En:   0.000D+00 0.000D+00 0.000D+00 0.000D+00 0.141D-02 0.999D+00
 Coeff:      0.236D-01-0.299D-01 0.754D-01 0.123D+00 0.227D+00 0.580D+00
 Gap=     0.144 Goal=   None    Shift=    0.000
 RMSDP=3.34D-05 MaxDP=2.54D-03 DE=-1.64D-03 OVMax= 3.48D-03

 Cycle   7  Pass 0  IDiag  1:
 RMSU=  2.11D-05    CP:  9.70D-01  1.70D+00  9.18D-01  5.12D-01  5.51D-01
                    CP:  6.36D-01
 E= -1725.43130557404     Delta-E=       -0.000072853158 Rises=F Damp=F
 DIIS: error= 1.67D-04 at cycle   7 NSaved=   7.
 NSaved= 7 IEnMin= 7 EnMin= -1725.43130557404     IErMin= 7 ErrMin= 1.67D-04
 ErrMax= 1.67D-04  0.00D+00 EMaxC= 1.00D-01 BMatC= 7.08D-06 BMatP= 7.39D-05
 IDIUse=3 WtCom= 9.98D-01 WtEn= 1.67D-03
 Coeff-Com:  0.400D-02-0.569D-02 0.944D-02 0.208D-01 0.722D-01 0.323D+00
 Coeff-Com:  0.576D+00
 Coeff-En:   0.000D+00 0.000D+00 0.000D+00 0.000D+00 0.000D+00 0.684D-01
 Coeff-En:   0.932D+00
 Coeff:      0.400D-02-0.568D-02 0.942D-02 0.207D-01 0.721D-01 0.323D+00
 Coeff:      0.577D+00
 Gap=     0.144 Goal=   None    Shift=    0.000
 RMSDP=1.01D-05 MaxDP=1.14D-03 DE=-7.29D-05 OVMax= 1.19D-03

 Cycle   8  Pass 0  IDiag  1:
 RMSU=  6.67D-06    CP:  9.70D-01  1.70D+00  9.18D-01  5.14D-01  5.40D-01
                    CP:  6.94D-01  6.89D-01
 E= -1725.43131266277     Delta-E=       -0.000007088727 Rises=F Damp=F
 DIIS: error= 5.56D-05 at cycle   8 NSaved=   8.
 NSaved= 8 IEnMin= 8 EnMin= -1725.43131266277     IErMin= 8 ErrMin= 5.56D-05
 ErrMax= 5.56D-05  0.00D+00 EMaxC= 1.00D-01 BMatC= 9.46D-07 BMatP= 7.08D-06
 IDIUse=1 WtCom= 1.00D+00 WtEn= 0.00D+00
 Coeff-Com:  0.870D-03-0.145D-02 0.728D-03 0.430D-02 0.286D-01 0.158D+00
 Coeff-Com:  0.359D+00 0.450D+00
 Coeff:      0.870D-03-0.145D-02 0.728D-03 0.430D-02 0.286D-01 0.158D+00
 Coeff:      0.359D+00 0.450D+00
 Gap=     0.144 Goal=   None    Shift=    0.000
 RMSDP=3.51D-06 MaxDP=3.52D-04 DE=-7.09D-06 OVMax= 4.57D-04

 Initial convergence to 1.0D-05 achieved.  Increase integral accuracy.
 Cycle   9  Pass 1  IDiag  1:
 E= -1725.43109080567     Delta-E=        0.000221857099 Rises=F Damp=F
 DIIS: error= 3.87D-04 at cycle   1 NSaved=   1.
 NSaved= 1 IEnMin= 1 EnMin= -1725.43109080567     IErMin= 1 ErrMin= 3.87D-04
 ErrMax= 3.87D-04  0.00D+00 EMaxC= 1.00D-01 BMatC= 1.19D-05 BMatP= 1.19D-05
 IDIUse=3 WtCom= 9.96D-01 WtEn= 3.87D-03
 Coeff-Com:  0.100D+01
 Coeff-En:   0.100D+01
 Coeff:      0.100D+01
 Gap=     0.144 Goal=   None    Shift=    0.000
 RMSDP=3.51D-06 MaxDP=3.52D-04 DE= 2.22D-04 OVMax= 7.25D-04

 Cycle  10  Pass 1  IDiag  1:
 RMSU=  1.22D-04    CP:  1.00D+00
 E= -1725.43110798630     Delta-E=       -0.000017180630 Rises=F Damp=F
 DIIS: error= 3.83D-05 at cycle   2 NSaved=   2.
 NSaved= 2 IEnMin= 2 EnMin= -1725.43110798630     IErMin= 2 ErrMin= 3.83D-05
 ErrMax= 3.83D-05  0.00D+00 EMaxC= 1.00D-01 BMatC= 2.14D-07 BMatP= 1.19D-05
 IDIUse=1 WtCom= 1.00D+00 WtEn= 0.00D+00
 Coeff-Com:  0.149D-01 0.985D+00
 Coeff:      0.149D-01 0.985D+00
 Gap=     0.144 Goal=   None    Shift=    0.000
 RMSDP=4.73D-06 MaxDP=4.12D-04 DE=-1.72D-05 OVMax= 7.26D-04

 Cycle  11  Pass 1  IDiag  1:
 RMSU=  4.32D-06    CP:  1.00D+00  1.02D+00
 E= -1725.43110712886     Delta-E=        0.000000857440 Rises=F Damp=F
 DIIS: error= 8.57D-05 at cycle   3 NSaved=   3.
 NSaved= 3 IEnMin= 2 EnMin= -1725.43110798630     IErMin= 2 ErrMin= 3.83D-05
 ErrMax= 8.57D-05  0.00D+00 EMaxC= 1.00D-01 BMatC= 9.21D-07 BMatP= 2.14D-07
 IDIUse=1 WtCom= 1.00D+00 WtEn= 0.00D+00
 Coeff-Com: -0.752D-02 0.681D+00 0.327D+00
 Coeff:     -0.752D-02 0.681D+00 0.327D+00
 Gap=     0.144 Goal=   None    Shift=    0.000
 RMSDP=2.95D-06 MaxDP=2.85D-04 DE= 8.57D-07 OVMax= 5.20D-04

 Cycle  12  Pass 1  IDiag  1:
 RMSU=  5.57D-07    CP:  1.00D+00  1.02D+00  3.30D-01
 E= -1725.43110824200     Delta-E=       -0.000001113145 Rises=F Damp=F
 DIIS: error= 3.94D-06 at cycle   4 NSaved=   4.
 NSaved= 4 IEnMin= 4 EnMin= -1725.43110824200     IErMin= 4 ErrMin= 3.94D-06
 ErrMax= 3.94D-06  0.00D+00 EMaxC= 1.00D-01 BMatC= 3.57D-09 BMatP= 2.14D-07
 IDIUse=1 WtCom= 1.00D+00 WtEn= 0.00D+00
 Coeff-Com: -0.435D-02 0.370D+00 0.183D+00 0.451D+00
 Coeff:     -0.435D-02 0.370D+00 0.183D+00 0.451D+00
 Gap=     0.144 Goal=   None    Shift=    0.000
 RMSDP=2.09D-07 MaxDP=1.19D-05 DE=-1.11D-06 OVMax= 2.52D-05

 Cycle  13  Pass 1  IDiag  1:
 RMSU=  1.75D-07    CP:  1.00D+00  1.02D+00  3.43D-01  8.22D-01
 E= -1725.43110824582     Delta-E=       -0.000000003820 Rises=F Damp=F
 DIIS: error= 8.14D-07 at cycle   5 NSaved=   5.
 NSaved= 5 IEnMin= 5 EnMin= -1725.43110824582     IErMin= 5 ErrMin= 8.14D-07
 ErrMax= 8.14D-07  0.00D+00 EMaxC= 1.00D-01 BMatC= 1.65D-10 BMatP= 3.57D-09
 IDIUse=1 WtCom= 1.00D+00 WtEn= 0.00D+00
 Coeff-Com: -0.132D-02 0.108D+00 0.545D-01 0.213D+00 0.625D+00
 Coeff:     -0.132D-02 0.108D+00 0.545D-01 0.213D+00 0.625D+00
 Gap=     0.144 Goal=   None    Shift=    0.000
 RMSDP=6.33D-08 MaxDP=3.73D-06 DE=-3.82D-09 OVMax= 6.43D-06

 Cycle  14  Pass 1  IDiag  1:
 RMSU=  5.27D-08    CP:  1.00D+00  1.02D+00  3.42D-01  8.41D-01  8.17D-01
 E= -1725.43110824595     Delta-E=       -0.000000000130 Rises=F Damp=F
 DIIS: error= 5.03D-07 at cycle   6 NSaved=   6.
 NSaved= 6 IEnMin= 6 EnMin= -1725.43110824595     IErMin= 6 ErrMin= 5.03D-07
 ErrMax= 5.03D-07  0.00D+00 EMaxC= 1.00D-01 BMatC= 4.50D-11 BMatP= 1.65D-10
 IDIUse=1 WtCom= 1.00D+00 WtEn= 0.00D+00
 Coeff-Com: -0.203D-03 0.147D-01 0.786D-02 0.679D-01 0.389D+00 0.521D+00
 Coeff:     -0.203D-03 0.147D-01 0.786D-02 0.679D-01 0.389D+00 0.521D+00
 Gap=     0.144 Goal=   None    Shift=    0.000
 RMSDP=2.66D-08 MaxDP=1.87D-06 DE=-1.30D-10 OVMax= 3.06D-06

 Cycle  15  Pass 1  IDiag  1:
 RMSU=  1.81D-08    CP:  1.00D+00  1.02D+00  3.43D-01  8.42D-01  8.74D-01
                    CP:  6.92D-01
[...]
    76  H    0.231288
    77  H    0.231154
    78  Sn   1.198703
    79  C   -0.968428
    80  H    0.231250
    81  H    0.222135
    82  H    0.231880
    83  C   -0.965930
    84  H    0.221880
    85  H    0.231701
    86  H    0.231355
    87  C   -0.986099
    88  H    0.230472
    89  H    0.231392
    90  H    0.228996
 Sum of Mulliken charges =  -0.00000
 Mulliken charges with hydrogens summed into heavy atoms:
               1
     1  C   -0.247029
     2  C    0.350374
     3  C    0.040873
     4  C   -0.571354
     5  S    0.228066
     6  O   -0.328051
     8  C   -0.242584
     9  C    0.355471
    10  C    0.040307
    11  C   -0.571347
    12  S    0.229627
    13  O   -0.327349
    15  C    0.176980
    18  C    0.166191
    21  O   -0.335985
    22  C    0.171803
    25  C    0.169114
    28  O   -0.339203
    29  C    0.180790
    32  C    0.153123
    35  O   -0.325159
    36  C    0.164787
    40  C    0.176790
    43  C    0.166147
    46  O   -0.335977
    47  C    0.171816
    50  C    0.169097
    53  O   -0.339203
    54  C    0.180786
    57  C    0.153117
    60  O   -0.325160
    61  C    0.164780
    65  Sn   1.198360
    66  C   -0.295247
    70  C   -0.282474
    74  C   -0.281580
    78  Sn   1.198703
    79  C   -0.283164
    83  C   -0.280995
    87  C   -0.295239
 Electronic spatial extent (au):  <R**2>=          67690.2266
 Charge=             -0.0000 electrons
 Dipole moment (field-independent basis, Debye):
    X=              0.0197    Y=              0.0074    Z=              0.5042  Tot=              0.5046
 Quadrupole moment (field-independent basis, Debye-Ang):
   XX=           -230.8847   YY=           -251.7952   ZZ=           -278.2684
   XY=             27.7627   XZ=             -0.0514   YZ=              0.1297
 Traceless Quadrupole moment (field-independent basis, Debye-Ang):
   XX=             22.7647   YY=              1.8543   ZZ=            -24.6190
   XY=             27.7627   XZ=             -0.0514   YZ=              0.1297
 Octapole moment (field-independent basis, Debye-Ang**2):
  XXX=             -1.6377  YYY=             -1.2850  ZZZ=            -60.4749  XYY=              1.4629
  XXY=              0.5190  XXZ=             77.2719  XZZ=              0.4578  YZZ=             -0.2558
  YYZ=            -47.4897  XYZ=             47.2755
 Hexadecapole moment (field-independent basis, Debye-Ang**3):
 XXXX=         -58055.2709 YYYY=         -16583.4889 ZZZZ=          -2174.9975 XXXY=           6668.9164
 XXXZ=            -18.5075 YYYX=            522.8994 YYYZ=              1.8569 ZZZX=             -1.2882
 ZZZY=              6.8148 XXYY=         -15185.9404 XXZZ=         -12007.8499 YYZZ=          -3371.1999
 XXYZ=             -1.0065 YYXZ=              5.3330 ZZXY=            153.6932
 N-N= 3.795926595750D+03 E-N=-1.160473405163D+04  KE= 1.698585223096D+03
 No NMR shielding tensors so no spin-rotation constants.
 Leave Link  601 at Tue Mar  3 13:17:42 2020, MaxMem=  6710886400 cpu:               2.8 elap:               0.4
 (Enter /apps/gaussian/g16-a03/l602.exe)
 FitSet:  NAtFit=    90 NAtPot=    90 NAtFrz=     0 MDM=    94 TotChg=   0.00000
 UFF atomic radii scaled by 1 / 1.20 used.

 **********************************************************************

            Electrostatic Properties Using The SCF Density

 **********************************************************************

       Atomic Center    1 is at   0.128097 -0.713095 -0.349249
       Atomic Center    2 is at   1.355248 -1.362258 -0.236787
       Atomic Center    3 is at   1.297479 -2.798336 -0.321243
       Atomic Center    4 is at   0.029480 -3.318015 -0.521588
       Atomic Center    5 is at  -1.175225 -1.965075 -0.608926
       Atomic Center    6 is at   2.520254 -0.611647 -0.071086
       Atomic Center    7 is at   2.178040 -3.425454 -0.232807
       Atomic Center    8 is at  -0.141037  0.702411 -0.393246
       Atomic Center    9 is at  -1.361429  1.357244 -0.245966
       Atomic Center   10 is at  -1.297609  2.793359 -0.321757
       Atomic Center   11 is at  -0.026935  3.308207 -0.518566
       Atomic Center   12 is at   1.172365  1.950663 -0.610864
       Atomic Center   13 is at  -2.525515  0.610045 -0.059932
       Atomic Center   14 is at  -2.174861  3.424179 -0.226760
       Atomic Center   15 is at   3.785349 -1.324120  0.094909
       Atomic Center   16 is at   4.008723 -1.924745 -0.797385
       Atomic Center   17 is at   3.743797 -1.981166  0.974295
       Atomic Center   18 is at   4.849743 -0.249868  0.287306
       Atomic Center   19 is at   4.880108  0.417967 -0.587410
       Atomic Center   20 is at   4.627865  0.352127  1.181824
       Atomic Center   21 is at   6.111425 -0.961494  0.440577
       Atomic Center   22 is at   7.257903 -0.082368  0.640893
       Atomic Center   23 is at   7.382536  0.594328 -0.218850
       Atomic Center   24 is at   7.126546  0.525204  1.549834
       Atomic Center   25 is at   8.478785 -0.984520  0.782295
       Atomic Center   26 is at   8.608669 -1.593199 -0.126503
       Atomic Center   27 is at   8.353301 -1.661530  1.642057
       Atomic Center   28 is at   9.623310 -0.105062  0.981493
       Atomic Center   29 is at  10.885849 -0.818391  1.137617
       Atomic Center   30 is at  11.104088 -1.422139  0.242785
       Atomic Center   31 is at  10.848149 -1.488048  2.011114
       Atomic Center   32 is at  11.966667  0.238910  1.333498
       Atomic Center   33 is at  11.748814  0.843320  2.228795
       Atomic Center   34 is at  12.005331  0.908945  0.459491
       Atomic Center   35 is at  13.223262 -0.481815  1.488958
       Atomic Center   36 is at  14.368594  0.389532  1.687704
       Atomic Center   37 is at  14.256739  0.997098  2.600550
       Atomic Center   38 is at  15.240500 -0.261982  1.790147
       Atomic Center   39 is at  14.514323  1.062997  0.827387
       Atomic Center   40 is at  -3.789811  1.325880  0.096915
       Atomic Center   41 is at  -4.010511  1.918316 -0.801506
       Atomic Center   42 is at  -3.749132  1.991261  0.970075
       Atomic Center   43 is at  -4.856052  0.255078  0.297957
       Atomic Center   44 is at  -4.887395 -0.419985 -0.571144
       Atomic Center   45 is at  -4.635329 -0.339807  1.197511
       Atomic Center   46 is at  -6.116583  0.970064  0.445064
       Atomic Center   47 is at  -7.264907  0.094445  0.650044
       Atomic Center   48 is at  -7.389027 -0.588748 -0.204622
       Atomic Center   49 is at  -7.136331 -0.506223  1.563957
       Atomic Center   50 is at  -8.484551  0.999721  0.781842
       Atomic Center   51 is at  -8.611087  1.601879 -0.131760
       Atomic Center   52 is at  -8.360045  1.682860  1.636884
       Atomic Center   53 is at  -9.631126  0.123757  0.984636
       Atomic Center   54 is at -10.892869  0.840408  1.131690
       Atomic Center   55 is at -11.107243  1.438088  0.231862
       Atomic Center   56 is at -10.856705  1.516263  2.000464
       Atomic Center   57 is at -11.976182 -0.213556  1.331724
       Atomic Center   58 is at -11.762294 -0.811868  2.232058
       Atomic Center   59 is at -12.013211 -0.889810  0.462450
       Atomic Center   60 is at -13.231997  0.510468  1.477911
       Atomic Center   61 is at -14.379539 -0.357430  1.678967
       Atomic Center   62 is at -14.271822 -0.958730  2.596447
       Atomic Center   63 is at -15.250617  0.296328  1.773884
       Atomic Center   64 is at -14.523598 -1.036697  0.822940
       Atomic Center   65 is at  -0.520913 -5.370138 -0.675927
       Atomic Center   66 is at   1.304660 -6.485562 -0.562701
       Atomic Center   67 is at   1.811538 -6.309262  0.394442
       Atomic Center   68 is at   1.101181 -7.560744 -0.647596
       Atomic Center   69 is at   1.985719 -6.202013 -1.374958
       Atomic Center   70 is at  -1.510140 -5.694325 -2.547623
       Atomic Center   71 is at  -2.421270 -5.086215 -2.612555
       Atomic Center   72 is at  -0.854123 -5.417034 -3.381978
       Atomic Center   73 is at  -1.790980 -6.749418 -2.661588
       Atomic Center   74 is at  -1.834193 -5.876828  0.938839
       Atomic Center   75 is at  -2.116907 -6.936564  0.892221
       Atomic Center   76 is at  -1.347080 -5.688718  1.903584
       Atomic Center   77 is at  -2.749409 -5.273135  0.894175
       Atomic Center   78 is at   0.530205  5.357845 -0.680610
       Atomic Center   79 is at   1.979849  5.816286  0.828031
       Atomic Center   80 is at   2.880918  5.204277  0.695145
       Atomic Center   81 is at   2.270835  6.873642  0.778957
       Atomic Center   82 is at   1.572732  5.613450  1.826265
       Atomic Center   83 is at   1.362282  5.714557 -2.621909
       Atomic Center   84 is at   1.641415  6.769916 -2.737802
       Atomic Center   85 is at   2.259436  5.101498 -2.774759
       Atomic Center   86 is at   0.636358  5.458907 -3.403648
       Atomic Center   87 is at  -1.267850  6.487133 -0.395196
       Atomic Center   88 is at  -2.010546  6.240306 -1.164371
       Atomic Center   89 is at  -1.705052  6.281278  0.589928
       Atomic Center   90 is at  -1.057445  7.562530 -0.457446
    3964 points will be used for fitting atomic charges
 Fitting point charges to electrostatic potential
 Charges from ESP fit, RMS=   0.00213 RRMS=   0.19161:
 ESP charges:
               1
     1  C   -0.164124
     2  C    0.612678
     3  C   -0.392177
     4  C   -0.323964
     5  S   -0.055347
     6  O   -0.620755
     7  H    0.161067
     8  C   -0.031472
     9  C    0.547379
    10  C   -0.380414
    11  C   -0.330880
    12  S   -0.083723
    13  O   -0.634845
    14  H    0.161634
    15  C    0.327641
    16  H    0.041848
    17  H    0.029615
    18  C    0.302104
    19  H    0.036711
    20  H    0.023003
    21  O   -0.755216
    22  C    0.385773
    23  H   -0.002668
    24  H    0.004741
    25  C    0.362285
    26  H    0.010092
    27  H    0.010763
    28  O   -0.725991
    29  C    0.269976
    30  H    0.021498
    31  H    0.019709
    32  C    0.254516
    33  H    0.044766
    34  H    0.045994
    35  O   -0.519850
    36  C   -0.084664
    37  H    0.083146
    38  H    0.129619
    39  H    0.080923
    40  C    0.406955
    41  H    0.026013
    42  H    0.020527
    43  C    0.241240
    44  H    0.049156
    45  H    0.038681
    46  O   -0.746609
    47  C    0.300906
    48  H    0.015627
    49  H    0.022279
    50  C    0.454369
    51  H   -0.006933
    52  H   -0.006806
    53  O   -0.737308
    54  C    0.282384
    55  H    0.014713
    56  H    0.014541
    57  C    0.235513
    58  H    0.050440
    59  H    0.050296
    60  O   -0.511509
    61  C   -0.108504
    62  H    0.088938
    63  H    0.136419
    64  H    0.087011
    65  Sn   1.184277
    66  C   -0.839733
    67  H    0.189789
    68  H    0.182863
    69  H    0.188847
    70  C   -0.783322
    71  H    0.184102
    72  H    0.168720
    73  H    0.162845
    74  C   -0.809437
    75  H    0.175717
    76  H    0.175717
    77  H    0.178479
    78  Sn   1.181802
    79  C   -0.811704
    80  H    0.180374
    81  H    0.175217
    82  H    0.178180
    83  C   -0.788608
    84  H    0.164590
    85  H    0.187369
    86  H    0.169091
    87  C   -0.818653
    88  H    0.183505
    89  H    0.183104
    90  H    0.177137
 Sum of ESP charges =   0.00000
 ESP charges with hydrogens summed into heavy atoms:
               1
     1  C   -0.164124
     2  C    0.612678
     3  C   -0.231110
     4  C   -0.323964
     5  S   -0.055347
     6  O   -0.620755
     8  C   -0.031472
     9  C    0.547379
    10  C   -0.218780
    11  C   -0.330880
    12  S   -0.083723
    13  O   -0.634845
    15  C    0.399104
    18  C    0.361818
    21  O   -0.755216
    22  C    0.387847
    25  C    0.383140
    28  O   -0.725991
    29  C    0.311183
    32  C    0.345276
    35  O   -0.519850
    36  C    0.209023
    40  C    0.453495
    43  C    0.329076
    46  O   -0.746609
    47  C    0.338812
    50  C    0.440630
    53  O   -0.737308
    54  C    0.311639
    57  C    0.336249
    60  O   -0.511509
    61  C    0.203865
    65  Sn   1.184277
    66  C   -0.278235
    70  C   -0.267654
    74  C   -0.279525
    78  Sn   1.181802
    79  C   -0.277933
    83  C   -0.267558
    87  C   -0.274906
 Charge=   0.00000 Dipole=     0.0471     0.0167     0.4863 Tot=     0.4889
 -----------------------------------------------------------------

              Electrostatic Properties (Atomic Units)

 -----------------------------------------------------------------
    Center     Electric         -------- Electric Field --------
               Potential          X             Y             Z
 -----------------------------------------------------------------
    1 Atom    -14.730435
    2 Atom    -14.695710
    3 Atom    -14.754694
    4 Atom    -14.759604
    5 Atom     -3.654422
    6 Atom    -22.325510
    7 Atom     -1.088110
    8 Atom    -14.730573
    9 Atom    -14.695869
   10 Atom    -14.754718
   11 Atom    -14.759656
   12 Atom     -3.654264
   13 Atom    -22.325594
   14 Atom     -1.088141
   15 Atom    -14.698784
   16 Atom     -1.100178
   17 Atom     -1.099839
   18 Atom    -14.705941
   19 Atom     -1.107138
   20 Atom     -1.107243
   21 Atom    -22.347210
   22 Atom    -14.708468
   23 Atom     -1.109210
   24 Atom     -1.109216
   25 Atom    -14.709498
   26 Atom     -1.110354
   27 Atom     -1.110339
   28 Atom    -22.350788
   29 Atom    -14.711475
   30 Atom     -1.112216
   31 Atom     -1.112227
   32 Atom    -14.711845
   33 Atom     -1.112351
   34 Atom     -1.112351
   35 Atom    -22.352873
   36 Atom    -14.714938
   37 Atom     -1.105366
   38 Atom     -1.102976
   39 Atom     -1.105368
   40 Atom    -14.698887
   41 Atom     -1.100208
   42 Atom     -1.099992
   43 Atom    -14.706027
   44 Atom     -1.107227
   45 Atom     -1.107327
   46 Atom    -22.347276
   47 Atom    -14.708521
   48 Atom     -1.109256
   49 Atom     -1.109276
   50 Atom    -14.709540
   51 Atom     -1.110394
   52 Atom     -1.110380
   53 Atom    -22.350823
   54 Atom    -14.711504
   55 Atom     -1.112241
   56 Atom     -1.112260
   57 Atom    -14.711870
   58 Atom     -1.112376
   59 Atom     -1.112374
   60 Atom    -22.352895
   61 Atom    -14.714957
   62 Atom     -1.105385
   63 Atom     -1.102995
   64 Atom     -1.105387
   65 Atom     -1.623721
   66 Atom    -14.784829
   67 Atom     -1.107857
   68 Atom     -1.107263
   69 Atom     -1.108002
   70 Atom    -14.788796
   71 Atom     -1.111796
   72 Atom     -1.112768
   73 Atom     -1.111128
   74 Atom    -14.788703
   75 Atom     -1.111037
   76 Atom     -1.112651
   77 Atom     -1.111796
   78 Atom     -1.623726
   79 Atom    -14.788514
   80 Atom     -1.111516
   81 Atom     -1.110883
   82 Atom     -1.112529
   83 Atom    -14.788954
   84 Atom     -1.111255
   85 Atom     -1.112031
   86 Atom     -1.112851
   87 Atom    -14.784840
   88 Atom     -1.107848
   89 Atom     -1.108035
   90 Atom     -1.107276
 -----------------------------------------------------------------
 Leave Link  602 at Tue Mar  3 13:17:43 2020, MaxMem=  6710886400 cpu:               2.9 elap:               0.4
 (Enter /apps/gaussian/g16-a03/l9999.exe)
 1\1\GINC-CX1-141-15-2\FOpt\RB3LYP\LANL2DZ\C28H50O8S2Sn2\NS5018\03-Mar-
 2020\0\\#p opt=modredundant pop=MKUFF b3lyp/lanl2dz\\O3G_1m_0sc_Sn_pop
 .gjf\\0,1\C,0.155494817,0.6792455472,-0.1674925578\C,1.4029573658,1.29
 20644684,-0.258323858\C,1.3869511348,2.7286297297,-0.1644461249\C,0.13
 23584408,3.2847363646,0.0220196393\S,-1.1133494833,1.9679693357,0.0830
 260047\O,2.547223942,0.5079892005,-0.4132214241\H,2.2870160876,3.32964
 42242,-0.2362107529\C,-0.1564139594,-0.7278177505,-0.1373137084\C,-1.3
 936404998,-1.344764006,-0.3061391716\C,-1.3738393679,-2.7826233293,-0.
 239705707\C,-0.1220117005,-3.3366455485,-0.0289947702\S,1.1159081371,-
 2.0163189702,0.0895703422\O,-2.5321465331,-0.5617685616,-0.5029454432\
 H,-2.2681302267,-3.3862057842,-0.3513330627\C,3.8352545248,1.183309450
 1,-0.5566032302\H,4.0639165354,1.7709689192,0.3429557707\H,3.825720010
 9,1.8471890758,-1.4317759488\C,4.8696670046,0.0789424412,-0.7418920479
 \H,4.8677641872,-0.5953545456,0.1283799675\H,4.6424900966,-0.510116154
 4,-1.6436636607\O,6.1540821835,0.7534325701,-0.8726045648\C,7.27647733
 48,-0.1583088485,-1.06328496\H,7.3687359999,-0.8441886508,-0.206742314
 5\H,7.1398079219,-0.7555592522,-1.9782635405\C,8.5256416104,0.70776152
 18,-1.1813370035\H,8.660873877,1.30616295,-0.2665142322\H,8.432541737,
 1.3939801609,-2.037908075\O,9.6460584865,-0.2042603153,-1.3709293049\C
 ,10.9314216367,0.471925069,-1.5044703048\H,11.15500846,1.0628433071,-0
 .6024229903\H,10.9260311688,1.1482548022,-2.373611866\C,11.9828041745,
 -0.6159683949,-1.6928942371\H,11.7595898713,-1.2075557648,-2.595406046
 6\H,11.9891396144,-1.29270794,-0.8232322145\O,13.2624385769,0.06778367
 32,-1.8258013187\C,14.3838975666,-0.8361582117,-2.014872678\H,14.26677
 48437,-1.4339603799,-2.9334854422\H,15.2762386292,-0.2104061357,-2.100
 5882287\H,14.4973296204,-1.5194443417,-1.1574402886\C,-3.8149423619,-1
 .2383076473,-0.6823806004\H,-4.0658530275,-1.8298721695,0.2086551547\H
 ,-3.7818988931,-1.8987375824,-1.5596118032\C,-4.8457741299,-0.13469372
 44,-0.8905323481\H,-4.8691394367,0.5351610058,-0.0171604501\H,-4.59475
 11989,0.4593255569,-1.7826822935\O,-6.1249185631,-0.8105624976,-1.0601
 697026\C,-7.2435665866,0.1004466531,-1.2747869045\H,-7.3592124731,0.78
 13060088,-0.4170747216\H,-7.0842656999,0.7031067034,-2.1825284094\C,-8
 .487747883,-0.766950378,-1.4299067151\H,-8.6450506781,-1.371157958,-0.
 5224577081\H,-8.3717096874,-1.4477644125,-2.2879880506\O,-9.6046689321
 ,0.1443373256,-1.6423110557\C,-10.8850743936,-0.5331594046,-1.81192455
 08\H,-11.1298397788,-1.1301654001,-0.9194318279\H,-10.856918711,-1.203
 9530896,-2.6849072709\C,-11.9334870824,0.5541289179,-2.0194250308\H,-1
 1.6891814768,1.1517844022,-2.912425174\H,-11.9625023061,1.2253435611,-
 1.1459505337\O,-13.2081998698,-0.1309211482,-2.1881411928\C,-14.326353
 3441,0.7723213497,-2.39887866\H,-14.18783061,1.3762615659,-3.310471815
 \H,-15.2151604647,0.1456252952,-2.5105040438\H,-14.4620638365,1.449845
 5685,-1.5401108258\Sn,-0.3585741501,5.3513580567,0.1833398572\C,1.5009
 29116,6.4122800966,0.1033533518\H,2.0157138543,6.2272863389,-0.8479112
 719\H,1.3285005672,7.4924856085,0.1930813167\H,2.1617273757,6.10299795
 41,0.9229221063\C,-1.3638770406,5.6924966365,2.0434215083\H,-2.2935961
 585,5.1115558441,2.0913969868\H,-0.7282312039,5.3900714833,2.884783477
 6\H,-1.6146332607,6.754747642,2.1610013808\C,-1.633301629,5.908013754,
 -1.4458038226\H,-1.8848458345,6.9754137761,-1.3955553891\H,-1.13851766
 52,5.7118586685,-2.4050276336\H,-2.5666874166,5.3317465119,-1.41811935
 34\Sn,0.371292941,-5.4031069315,0.1261403282\C,1.8276473588,-5.8946764
 519,-1.3655116239\H,2.7446477142,-5.3108626998,-1.2158039501\H,2.08618
 52224,-6.9605866788,-1.3199480896\H,1.4408430881,-5.6730345069,-2.3678
 162469\C,1.1649726973,-5.7976189027,2.0761840905\H,1.4107846916,-6.861
 6260502,2.1884080931\H,2.077810807,-5.2127727552,2.2458063217\H,0.4360
 985783,-5.5255676643,2.8495983056\C,-1.4555194857,-6.476037755,-0.1921
 817249\H,-2.2012433068,-6.2122190543,0.5683741023\H,-1.872486524,-6.25
 05642994,-1.1817735067\H,-1.2782433789,-7.5576538278,-0.1346884757\\Ve
 rsion=ES64L-G16RevA.03\State=1-A\HF=-1725.4818849\RMSD=9.433e-09\RMSF=
 5.211e-04\Dipole=0.0104561,-0.001803,-0.1982567\Quadrupole=15.6699322,
 2.6275427,-18.2974749,-21.0707251,0.3772688,-0.060491\PG=C01 [X(C28H50
 O8S2Sn2)]\\@


 IT IS IMPOSSIBLE TO MEDITATE ON TIME AND THE MYSTERY 
 OF NATURE WITHOUT AN OVERWHELMING EMOTION AT THE
 LIMITATIONS OF HUMAN INTELLIGENCE.

                                         -- ALFRED NORTH WHITEHEAD
 Job cpu time:       0 days 11 hours 14 minutes 30.3 seconds.
 Elapsed time:       0 days  1 hours 24 minutes 33.6 seconds.
 File lengths (MBytes):  RWF=    138 Int=      0 D2E=      0 Chk=     21 Scr=      1
 Normal termination of Gaussian 16 at Tue Mar  3 13:17:44 2020.
