 Entering Gaussian System, Link 0=g16
 Input=GS_30.gjf
 Output=GS_30.log
 Initial command:
 /apps/gaussian/g16-a03/l1.exe "/tmp/pbs.1165169[3].pbs/Gau-13422.inp" -scrdir="/tmp/pbs.1165169[3].pbs/"
 Entering Link 1 = /apps/gaussian/g16-a03/l1.exe PID=     13423.
  
 Copyright (c) 1988,1990,1992,1993,1995,1998,2003,2009,2016,
            Gaussian, Inc.  All Rights Reserved.
  
 This is part of the Gaussian(R) 16 program.  It is based on
 the Gaussian(R) 09 system (copyright 2009, Gaussian, Inc.),
 the Gaussian(R) 03 system (copyright 2003, Gaussian, Inc.),
 the Gaussian(R) 98 system (copyright 1998, Gaussian, Inc.),
 the Gaussian(R) 94 system (copyright 1995, Gaussian, Inc.),
 the Gaussian 92(TM) system (copyright 1992, Gaussian, Inc.),
 the Gaussian 90(TM) system (copyright 1990, Gaussian, Inc.),
 the Gaussian 88(TM) system (copyright 1988, Gaussian, Inc.),
 the Gaussian 86(TM) system (copyright 1986, Carnegie Mellon
 University), and the Gaussian 82(TM) system (copyright 1983,
 Carnegie Mellon University). Gaussian is a federally registered
 trademark of Gaussian, Inc.
  
 This software contains proprietary and confidential information,
 including trade secrets, belonging to Gaussian, Inc.
  
 This software is provided under written license and may be
 used, copied, transmitted, or stored only in accord with that
 written license.
  
 The following legend is applicable only to US Government
 contracts under FAR:
  
                    RESTRICTED RIGHTS LEGEND
  
 Use, reproduction and disclosure by the US Government is
 subject to restrictions as set forth in subparagraphs (a)
 and (c) of the Commercial Computer Software - Restricted
 Rights clause in FAR 52.227-19.
  
 Gaussian, Inc.
 340 Quinnipiac St., Bldg. 40, Wallingford CT 06492
  
  
 ---------------------------------------------------------------
 Warning -- This program may not be used in any manner that
 competes with the business of Gaussian, Inc. or will provide
 assistance to any competitor of Gaussian, Inc.  The licensee
 of this program is prohibited from giving any competitor of
 Gaussian, Inc. access to this program.  By using this program,
 the user acknowledges that Gaussian, Inc. is engaged in the
 business of creating and licensing software in the field of
 computational chemistry and represents and warrants to the
 licensee that it is not a competitor of Gaussian, Inc. and that
 it will not use this program in any manner prohibited above.
 ---------------------------------------------------------------
  

 Cite this work as:
 Gaussian 16, Revision A.03,
 M. J. Frisch, G. W. Trucks, H. B. Schlegel, G. E. Scuseria, 
 M. A. Robb, J. R. Cheeseman, G. Scalmani, V. Barone, 
 G. A. Petersson, H. Nakatsuji, X. Li, M. Caricato, A. V. Marenich, 
 J. Bloino, B. G. Janesko, R. Gomperts, B. Mennucci, H. P. Hratchian, 
 J. V. Ortiz, A. F. Izmaylov, J. L. Sonnenberg, D. Williams-Young, 
 F. Ding, F. Lipparini, F. Egidi, J. Goings, B. Peng, A. Petrone, 
 T. Henderson, D. Ranasinghe, V. G. Zakrzewski, J. Gao, N. Rega, 
 G. Zheng, W. Liang, M. Hada, M. Ehara, K. Toyota, R. Fukuda, 
 J. Hasegawa, M. Ishida, T. Nakajima, Y. Honda, O. Kitao, H. Nakai, 
 T. Vreven, K. Throssell, J. A. Montgomery, Jr., J. E. Peralta, 
 F. Ogliaro, M. J. Bearpark, J. J. Heyd, E. N. Brothers, K. N. Kudin, 
 V. N. Staroverov, T. A. Keith, R. Kobayashi, J. Normand, 
 K. Raghavachari, A. P. Rendell, J. C. Burant, S. S. Iyengar, 
 J. Tomasi, M. Cossi, J. M. Millam, M. Klene, C. Adamo, R. Cammi, 
 J. W. Ochterski, R. L. Martin, K. Morokuma, O. Farkas, 
 J. B. Foresman, and D. J. Fox, Gaussian, Inc., Wallingford CT, 2016.
 
 ******************************************
 Gaussian 16:  ES64L-G16RevA.03 25-Dec-2016
                 3-Mar-2020 
 ******************************************
 %mem=50GB
 %nprocshared=8
 Will use up to    8 processors via shared memory.
 -------------------------------------------
 #p opt=modredundant pop=MKUFF b3lyp/lanl2dz
 -------------------------------------------
 1/18=120,19=15,26=3,38=1/1,3;
 2/9=110,12=2,17=6,18=5,40=1/2;
 3/5=6,6=3,11=2,25=1,30=1,71=1,74=-5/1,2,3;
 4//1;
 5/5=2,38=5/2;
 6/7=2,8=2,9=2,10=2,15=8,20=4,28=1/1,2;
 7//1,2,3,16;
 1/18=20,19=15,26=3/3(2);
 2/9=110/2;
 99//99;
 2/9=110/2;
 3/5=6,6=3,11=2,25=1,30=1,71=1,74=-5/1,2,3;
 4/5=5,16=3,69=1/1;
 5/5=2,38=5/2;
 7//1,2,3,16;
 1/18=20,19=15,26=3/3(-5);
 2/9=110/2;
 6/7=2,8=2,9=2,10=2,15=8,19=2,20=4,28=1/1,2;
 99/9=1/99;
 Leave Link    1 at Tue Mar  3 11:49:16 2020, MaxMem=  6710886400 cpu:               0.3 elap:               0.0
 (Enter /apps/gaussian/g16-a03/l101.exe)
 ---------------------
 O3G_1m_0sc_Sn_pop.gjf
 ---------------------
 Symbolic Z-matrix:
 Charge =  0 Multiplicity = 1
 C                     0.152     0.706    -0.001 
 C                     1.36168   1.32082  -0.2832 
 C                     1.33102   2.74138  -0.19505 
 C                     0.09798   3.2077    0.15424 
 S                    -1.04667   1.93438   0.38226 
 O                     2.44489   0.55882  -0.60888 
 H                     2.18031   3.38248  -0.38033 
 C                    -0.152    -0.706    -0.001 
 C                    -1.36168  -1.32082  -0.2832 
 C                    -1.33199  -2.74138  -0.19531 
 C                    -0.09798  -3.2077    0.15424 
 S                     1.04641  -1.93532   0.38329 
 O                    -2.44464  -0.55887  -0.60985 
 H                    -2.18006  -3.38354  -0.38124 
 C                     3.67329   1.2217   -0.89327 
 H                     4.01027   1.80204  -0.02742 
 H                     3.55964   1.89906  -1.74773 
 C                     4.69311   0.14678  -1.22103 
 H                     4.80233  -0.5375   -0.36787 
 H                     4.35246  -0.44064  -2.08529 
 O                     5.91086   0.80958  -1.50264 
 C                     6.97074  -0.07135  -1.82995 
 H                     7.1747   -0.76492  -1.00213 
 H                     6.72482  -0.66806  -2.71955 
 C                     8.20138   0.77426  -2.10463 
 H                     8.44537   1.37196  -1.21447 
 H                     7.99672   1.46877  -2.93117 
 O                     9.25836  -0.10669  -2.43118 
 C                     10.47829   0.55508  -2.71238 
 H                     10.81483   1.14352  -1.84802 
 H                     10.36618   1.24033  -3.56473 
 C                     11.51174  -0.50676  -3.04298 
 H                     11.17205  -1.09617  -3.90759 
 H                     11.62192  -1.19303  -2.19018 
 O                     12.72757   0.15603  -3.32408 
 C                     13.77675  -0.73197  -3.64899 
 H                     13.54268  -1.32544  -4.54461 
 H                     14.66228  -0.12749  -3.84686 
 H                     13.99407  -1.42262  -2.8214 
 C                    -3.67304  -1.22275  -0.89418 
 H                    -4.01027  -1.80204  -0.02742 
 H                    -3.55964  -1.89906  -1.74773 
 C                    -4.69311  -0.14678  -1.22103 
 H                    -4.80234   0.5365   -0.36782 
 H                    -4.35221   0.43959  -2.0862 
 O                    -5.91086  -0.80958  -1.50264 
 C                    -6.97074   0.07135  -1.82995 
 H                    -7.17469   0.76592  -1.00219 
 H                    -6.72482   0.66806  -2.71955 
 C                    -8.20138  -0.77426  -2.10463 
 H                    -8.44634  -1.37197  -1.21472 
 H                    -7.99672  -1.46877  -2.93117 
 O                    -9.25835   0.10769  -2.43123 
 C                    -10.47829  -0.55408  -2.71244 
 H                    -10.81507  -1.14247  -1.84711 
 H                    -10.36617  -1.23933  -3.56478 
 C                    -11.51077   0.50777  -3.04278 
 H                    -11.17204   1.09717  -3.90765 
 H                    -11.62095   1.19403  -2.18998 
 O                    -12.72756  -0.15503  -3.32413 
 C                    -13.77674   0.73297  -3.64904 
 H                    -13.54267   1.32644  -4.54466 
 H                    -14.66253   0.12854  -3.84595 
 H                    -13.99309   1.42363  -2.8212 
 Sn                   -0.17327   5.32137   0.34553 
 C                     0.98171   6.25137   1.92994 
 H                     1.99231   6.38322   1.60433 
 H                     0.55753   7.20479   2.16833 
 H                     0.9651    5.62627   2.79766 
 C                    -2.27261   5.30616   0.89459 
 H                    -2.84289   4.85008   0.11238 
 H                    -2.40064   4.75086   1.8006 
 H                    -2.6104    6.31102   1.04181 
 C                     0.085     6.44442  -1.4933 
 H                    -0.32919   7.42431  -1.37406 
 H                     1.12815   6.52356  -1.71964 
 H                    -0.41592   5.9407   -2.29222 
 Sn                    0.29725  -5.2995    0.37677 
 C                     2.00239  -6.18957  -0.62856 
 H                     2.88963  -5.99965  -0.06212 
 H                     1.85372  -7.24581  -0.71457 
 H                     2.10361  -5.7628   -1.60445 
 C                     0.8668   -5.78527   2.41375 
 H                     0.80236  -6.8435    2.55904 
 H                     1.8706   -5.46121   2.59009 
 H                     0.20719  -5.29072   3.09617 
 C                    -1.41267  -6.58186   0.00222 
 H                    -2.2056   -6.32346   0.67131 
 H                    -1.74059  -6.45241  -1.00823 
 H                    -1.1328   -7.60287   0.15796 
 
 The following ModRedundant input section has been read:
 D       5       1       8       9 F                                           
 
 ITRead=  0  0  0  0  0  0  0  0  0  0  0  0  0  0  0  0  0  0  0  0
 ITRead=  0  0  0  0  0  0  0  0  0  0  0  0  0  0  0  0  0  0  0  0
 ITRead=  0  0  0  0  0  0  0  0  0  0  0  0  0  0  0  0  0  0  0  0
 ITRead=  0  0  0  0  0  0  0  0  0  0  0  0  0  0  0  0  0  0  0  0
 ITRead=  0  0  0  0  0  0  0  0  0  0
 MicOpt= -1 -1 -1 -1 -1 -1 -1 -1 -1 -1 -1 -1 -1 -1 -1 -1 -1 -1 -1 -1
 MicOpt= -1 -1 -1 -1 -1 -1 -1 -1 -1 -1 -1 -1 -1 -1 -1 -1 -1 -1 -1 -1
 MicOpt= -1 -1 -1 -1 -1 -1 -1 -1 -1 -1 -1 -1 -1 -1 -1 -1 -1 -1 -1 -1
 MicOpt= -1 -1 -1 -1 -1 -1 -1 -1 -1 -1 -1 -1 -1 -1 -1 -1 -1 -1 -1 -1
 MicOpt= -1 -1 -1 -1 -1 -1 -1 -1 -1 -1
 NAtoms=     90 NQM=       90 NQMF=       0 NMMI=      0 NMMIF=      0
                NMic=       0 NMicF=      0.
                    Isotopes and Nuclear Properties:
 (Nuclear quadrupole moments (NQMom) in fm**2, nuclear magnetic moments (NMagM)
  in nuclear magnetons)

  Atom         1           2           3           4           5           6           7           8           9          10
 IAtWgt=          12          12          12          12          32          16           1          12          12          12
 AtmWgt=  12.0000000  12.0000000  12.0000000  12.0000000  31.9720718  15.9949146   1.0078250  12.0000000  12.0000000  12.0000000
 NucSpn=           0           0           0           0           0           0           1           0           0           0
 AtZEff=  -0.0000000  -0.0000000  -0.0000000  -0.0000000  -0.0000000  -0.0000000  -0.0000000  -0.0000000  -0.0000000  -0.0000000
 NQMom=    0.0000000   0.0000000   0.0000000   0.0000000   0.0000000   0.0000000   0.0000000   0.0000000   0.0000000   0.0000000
 NMagM=    0.0000000   0.0000000   0.0000000   0.0000000   0.0000000   0.0000000   2.7928460   0.0000000   0.0000000   0.0000000
 AtZNuc=   6.0000000   6.0000000   6.0000000   6.0000000  16.0000000   8.0000000   1.0000000   6.0000000   6.0000000   6.0000000

  Atom        11          12          13          14          15          16          17          18          19          20
 IAtWgt=          12          32          16           1          12           1           1          12           1           1
 AtmWgt=  12.0000000  31.9720718  15.9949146   1.0078250  12.0000000   1.0078250   1.0078250  12.0000000   1.0078250   1.0078250
 NucSpn=           0           0           0           1           0           1           1           0           1           1
 AtZEff=  -0.0000000  -0.0000000  -0.0000000  -0.0000000  -0.0000000  -0.0000000  -0.0000000  -0.0000000  -0.0000000  -0.0000000
 NQMom=    0.0000000   0.0000000   0.0000000   0.0000000   0.0000000   0.0000000   0.0000000   0.0000000   0.0000000   0.0000000
 NMagM=    0.0000000   0.0000000   0.0000000   2.7928460   0.0000000   2.7928460   2.7928460   0.0000000   2.7928460   2.7928460
 AtZNuc=   6.0000000  16.0000000   8.0000000   1.0000000   6.0000000   1.0000000   1.0000000   6.0000000   1.0000000   1.0000000

  Atom        21          22          23          24          25          26          27          28          29          30
 IAtWgt=          16          12           1           1          12           1           1          16          12           1
 AtmWgt=  15.9949146  12.0000000   1.0078250   1.0078250  12.0000000   1.0078250   1.0078250  15.9949146  12.0000000   1.0078250
 NucSpn=           0           0           1           1           0           1           1           0           0           1
 AtZEff=  -0.0000000  -0.0000000  -0.0000000  -0.0000000  -0.0000000  -0.0000000  -0.0000000  -0.0000000  -0.0000000  -0.0000000
 NQMom=    0.0000000   0.0000000   0.0000000   0.0000000   0.0000000   0.0000000   0.0000000   0.0000000   0.0000000   0.0000000
 NMagM=    0.0000000   0.0000000   2.7928460   2.7928460   0.0000000   2.7928460   2.7928460   0.0000000   0.0000000   2.7928460
 AtZNuc=   8.0000000   6.0000000   1.0000000   1.0000000   6.0000000   1.0000000   1.0000000   8.0000000   6.0000000   1.0000000

  Atom        31          32          33          34          35          36          37          38          39          40
 IAtWgt=           1          12           1           1          16          12           1           1           1          12
 AtmWgt=   1.0078250  12.0000000   1.0078250   1.0078250  15.9949146  12.0000000   1.0078250   1.0078250   1.0078250  12.0000000
 NucSpn=           1           0           1           1           0           0           1           1           1           0
 AtZEff=  -0.0000000  -0.0000000  -0.0000000  -0.0000000  -0.0000000  -0.0000000  -0.0000000  -0.0000000  -0.0000000  -0.0000000
 NQMom=    0.0000000   0.0000000   0.0000000   0.0000000   0.0000000   0.0000000   0.0000000   0.0000000   0.0000000   0.0000000
 NMagM=    2.7928460   0.0000000   2.7928460   2.7928460   0.0000000   0.0000000   2.7928460   2.7928460   2.7928460   0.0000000
 AtZNuc=   1.0000000   6.0000000   1.0000000   1.0000000   8.0000000   6.0000000   1.0000000   1.0000000   1.0000000   6.0000000

  Atom        41          42          43          44          45          46          47          48          49          50
 IAtWgt=           1           1          12           1           1          16          12           1           1          12
 AtmWgt=   1.0078250   1.0078250  12.0000000   1.0078250   1.0078250  15.9949146  12.0000000   1.0078250   1.0078250  12.0000000
 NucSpn=           1           1           0           1           1           0           0           1           1           0
 AtZEff=  -0.0000000  -0.0000000  -0.0000000  -0.0000000  -0.0000000  -0.0000000  -0.0000000  -0.0000000  -0.0000000  -0.0000000
 NQMom=    0.0000000   0.0000000   0.0000000   0.0000000   0.0000000   0.0000000   0.0000000   0.0000000   0.0000000   0.0000000
 NMagM=    2.7928460   2.7928460   0.0000000   2.7928460   2.7928460   0.0000000   0.0000000   2.7928460   2.7928460   0.0000000
 AtZNuc=   1.0000000   1.0000000   6.0000000   1.0000000   1.0000000   8.0000000   6.0000000   1.0000000   1.0000000   6.0000000

  Atom        51          52          53          54          55          56          57          58          59          60
 IAtWgt=           1           1          16          12           1           1          12           1           1          16
 AtmWgt=   1.0078250   1.0078250  15.9949146  12.0000000   1.0078250   1.0078250  12.0000000   1.0078250   1.0078250  15.9949146
 NucSpn=           1           1           0           0           1           1           0           1           1           0
 AtZEff=  -0.0000000  -0.0000000  -0.0000000  -0.0000000  -0.0000000  -0.0000000  -0.0000000  -0.0000000  -0.0000000  -0.0000000
 NQMom=    0.0000000   0.0000000   0.0000000   0.0000000   0.0000000   0.0000000   0.0000000   0.0000000   0.0000000   0.0000000
 NMagM=    2.7928460   2.7928460   0.0000000   0.0000000   2.7928460   2.7928460   0.0000000   2.7928460   2.7928460   0.0000000
 AtZNuc=   1.0000000   1.0000000   8.0000000   6.0000000   1.0000000   1.0000000   6.0000000   1.0000000   1.0000000   8.0000000

  Atom        61          62          63          64          65          66          67          68          69          70
 IAtWgt=          12           1           1           1         118          12           1           1           1          12
 AtmWgt=  12.0000000   1.0078250   1.0078250   1.0078250 117.9018000  12.0000000   1.0078250   1.0078250   1.0078250  12.0000000
 NucSpn=           0           1           1           1           0           0           1           1           1           0
 AtZEff=  -0.0000000  -0.0000000  -0.0000000  -0.0000000  -0.0000000  -0.0000000  -0.0000000  -0.0000000  -0.0000000  -0.0000000
 NQMom=    0.0000000   0.0000000   0.0000000   0.0000000   0.0000000   0.0000000   0.0000000   0.0000000   0.0000000   0.0000000
 NMagM=    0.0000000   2.7928460   2.7928460   2.7928460   0.0000000   0.0000000   2.7928460   2.7928460   2.7928460   0.0000000
 AtZNuc=   6.0000000   1.0000000   1.0000000   1.0000000  50.0000000   6.0000000   1.0000000   1.0000000   1.0000000   6.0000000

  Atom        71          72          73          74          75          76          77          78          79          80
 IAtWgt=           1           1           1          12           1           1           1         118          12           1
 AtmWgt=   1.0078250   1.0078250   1.0078250  12.0000000   1.0078250   1.0078250   1.0078250 117.9018000  12.0000000   1.0078250
 NucSpn=           1           1           1           0           1           1           1           0           0           1
 AtZEff=  -0.0000000  -0.0000000  -0.0000000  -0.0000000  -0.0000000  -0.0000000  -0.0000000  -0.0000000  -0.0000000  -0.0000000
 NQMom=    0.0000000   0.0000000   0.0000000   0.0000000   0.0000000   0.0000000   0.0000000   0.0000000   0.0000000   0.0000000
 NMagM=    2.7928460   2.7928460   2.7928460   0.0000000   2.7928460   2.7928460   2.7928460   0.0000000   0.0000000   2.7928460
 AtZNuc=   1.0000000   1.0000000   1.0000000   6.0000000   1.0000000   1.0000000   1.0000000  50.0000000   6.0000000   1.0000000

  Atom        81          82          83          84          85          86          87          88          89          90
 IAtWgt=           1           1          12           1           1           1          12           1           1           1
 AtmWgt=   1.0078250   1.0078250  12.0000000   1.0078250   1.0078250   1.0078250  12.0000000   1.0078250   1.0078250   1.0078250
 NucSpn=           1           1           0           1           1           1           0           1           1           1
 AtZEff=  -0.0000000  -0.0000000  -0.0000000  -0.0000000  -0.0000000  -0.0000000  -0.0000000  -0.0000000  -0.0000000  -0.0000000
 NQMom=    0.0000000   0.0000000   0.0000000   0.0000000   0.0000000   0.0000000   0.0000000   0.0000000   0.0000000   0.0000000
 NMagM=    2.7928460   2.7928460   0.0000000   2.7928460   2.7928460   2.7928460   0.0000000   2.7928460   2.7928460   2.7928460
 AtZNuc=   1.0000000   1.0000000   6.0000000   1.0000000   1.0000000   1.0000000   6.0000000   1.0000000   1.0000000   1.0000000
 Leave Link  101 at Tue Mar  3 11:49:17 2020, MaxMem=  6710886400 cpu:               6.9 elap:               0.9
 (Enter /apps/gaussian/g16-a03/l103.exe)

 GradGradGradGradGradGradGradGradGradGradGradGradGradGradGradGradGradGrad
 Berny optimization.
 Initialization pass.
                           ----------------------------
                           !    Initial Parameters    !
                           ! (Angstroms and Degrees)  !
 --------------------------                            --------------------------
 ! Name  Definition              Value          Derivative Info.                !
 --------------------------------------------------------------------------------
 ! R1    R(1,2)                  1.386          estimate D2E/DX2                !
 ! R2    R(1,5)                  1.7586         estimate D2E/DX2                !
 ! R3    R(1,8)                  1.4444         estimate D2E/DX2                !
 ! R4    R(2,3)                  1.4236         estimate D2E/DX2                !
 ! R5    R(2,6)                  1.3638         estimate D2E/DX2                !
 ! R6    R(3,4)                  1.3638         estimate D2E/DX2                !
 ! R7    R(3,7)                  1.0801         estimate D2E/DX2                !
 ! R8    R(4,5)                  1.7273         estimate D2E/DX2                !
 ! R9    R(4,65)                 2.1396         estimate D2E/DX2                !
 ! R10   R(6,15)                 1.4245         estimate D2E/DX2                !
 ! R11   R(8,9)                  1.386          estimate D2E/DX2                !
 ! R12   R(8,12)                 1.7593         estimate D2E/DX2                !
 ! R13   R(9,10)                 1.4236         estimate D2E/DX2                !
 ! R14   R(9,13)                 1.3638         estimate D2E/DX2                !
 ! R15   R(10,11)                1.3647         estimate D2E/DX2                !
 ! R16   R(10,14)                1.0799         estimate D2E/DX2                !
 ! R17   R(11,12)                1.7266         estimate D2E/DX2                !
 ! R18   R(11,78)                2.1404         estimate D2E/DX2                !
 ! R19   R(13,40)                1.425          estimate D2E/DX2                !
 ! R20   R(15,16)                1.0955         estimate D2E/DX2                !
 ! R21   R(15,17)                1.0963         estimate D2E/DX2                !
 ! R22   R(15,18)                1.5175         estimate D2E/DX2                !
 ! R23   R(18,19)                1.0991         estimate D2E/DX2                !
 ! R24   R(18,20)                1.0991         estimate D2E/DX2                !
 ! R25   R(18,21)                1.4148         estimate D2E/DX2                !
 ! R26   R(21,22)                1.4165         estimate D2E/DX2                !
 ! R27   R(22,23)                1.0991         estimate D2E/DX2                !
 ! R28   R(22,24)                1.0991         estimate D2E/DX2                !
 ! R29   R(22,25)                1.5182         estimate D2E/DX2                !
 ! R30   R(25,26)                1.0996         estimate D2E/DX2                !
 ! R31   R(25,27)                1.0988         estimate D2E/DX2                !
 ! R32   R(25,28)                1.4142         estimate D2E/DX2                !
 ! R33   R(28,29)                1.4161         estimate D2E/DX2                !
 ! R34   R(29,30)                1.0985         estimate D2E/DX2                !
 ! R35   R(29,31)                1.0994         estimate D2E/DX2                !
 ! R36   R(29,32)                1.5182         estimate D2E/DX2                !
 ! R37   R(32,33)                1.1002         estimate D2E/DX2                !
 ! R38   R(32,34)                1.1002         estimate D2E/DX2                !
 ! R39   R(32,35)                1.413          estimate D2E/DX2                !
 ! R40   R(35,36)                1.4124         estimate D2E/DX2                !
 ! R41   R(36,37)                1.0996         estimate D2E/DX2                !
 ! R42   R(36,38)                1.0903         estimate D2E/DX2                !
 ! R43   R(36,39)                1.0996         estimate D2E/DX2                !
 ! R44   R(40,41)                1.0957         estimate D2E/DX2                !
 ! R45   R(40,42)                1.0949         estimate D2E/DX2                !
 ! R46   R(40,43)                1.5182         estimate D2E/DX2                !
 ! R47   R(43,44)                1.0985         estimate D2E/DX2                !
 ! R48   R(43,45)                1.0993         estimate D2E/DX2                !
 ! R49   R(43,46)                1.4148         estimate D2E/DX2                !
 ! R50   R(46,47)                1.4165         estimate D2E/DX2                !
 ! R51   R(47,48)                1.0996         estimate D2E/DX2                !
 ! R52   R(47,49)                1.0991         estimate D2E/DX2                !
 ! R53   R(47,50)                1.5182         estimate D2E/DX2                !
 ! R54   R(50,51)                1.0996         estimate D2E/DX2                !
 ! R55   R(50,52)                1.0988         estimate D2E/DX2                !
 ! R56   R(50,53)                1.4148         estimate D2E/DX2                !
 ! R57   R(53,54)                1.4161         estimate D2E/DX2                !
 ! R58   R(54,55)                1.0993         estimate D2E/DX2                !
 ! R59   R(54,56)                1.0994         estimate D2E/DX2                !
 ! R60   R(54,57)                1.5175         estimate D2E/DX2                !
 ! R61   R(57,58)                1.1001         estimate D2E/DX2                !
 ! R62   R(57,59)                1.1002         estimate D2E/DX2                !
 ! R63   R(57,60)                1.4139         estimate D2E/DX2                !
 ! R64   R(60,61)                1.4124         estimate D2E/DX2                !
 ! R65   R(61,62)                1.0996         estimate D2E/DX2                !
 ! R66   R(61,63)                1.0903         estimate D2E/DX2                !
 ! R67   R(61,64)                1.0996         estimate D2E/DX2                !
 ! R68   R(65,66)                2.1701         estimate D2E/DX2                !
 ! R69   R(65,70)                2.17           estimate D2E/DX2                !
 ! R70   R(65,74)                2.1701         estimate D2E/DX2                !
 ! R71   R(66,67)                1.0699         estimate D2E/DX2                !
 ! R72   R(66,68)                1.0704         estimate D2E/DX2                !
 ! R73   R(66,69)                1.0696         estimate D2E/DX2                !
 ! R74   R(70,71)                1.0701         estimate D2E/DX2                !
 ! R75   R(70,72)                1.0703         estimate D2E/DX2                !
 ! R76   R(70,73)                1.0703         estimate D2E/DX2                !
 ! R77   R(74,75)                1.0705         estimate D2E/DX2                !
 ! R78   R(74,76)                1.0703         estimate D2E/DX2                !
 ! R79   R(74,77)                1.0691         estimate D2E/DX2                !
 ! R80   R(78,79)                2.1703         estimate D2E/DX2                !
 ! R81   R(78,83)                2.1702         estimate D2E/DX2                !
 ! R82   R(78,87)                2.1699         estimate D2E/DX2                !
 ! R83   R(79,80)                1.0696         estimate D2E/DX2                !
 ! R84   R(79,81)                1.0701         estimate D2E/DX2                !
 ! R85   R(79,82)                1.0699         estimate D2E/DX2                !
 ! R86   R(83,84)                1.0701         estimate D2E/DX2                !
 ! R87   R(83,85)                1.0694         estimate D2E/DX2                !
 ! R88   R(83,86)                1.0702         estimate D2E/DX2                !
 ! R89   R(87,88)                1.0692         estimate D2E/DX2                !
 ! R90   R(87,89)                1.0702         estimate D2E/DX2                !
 ! R91   R(87,90)                1.0701         estimate D2E/DX2                !
 ! A1    A(2,1,5)              109.2339         estimate D2E/DX2                !
 ! A2    A(2,1,8)              128.1236         estimate D2E/DX2                !
 ! A3    A(5,1,8)              122.6425         estimate D2E/DX2                !
 ! A4    A(1,2,3)              114.2828         estimate D2E/DX2                !
 ! A5    A(1,2,6)              119.6024         estimate D2E/DX2                !
 ! A6    A(3,2,6)              126.1147         estimate D2E/DX2                !
 ! A7    A(2,3,4)              112.1188         estimate D2E/DX2                !
 ! A8    A(2,3,7)              124.3836         estimate D2E/DX2                !
 ! A9    A(4,3,7)              123.4976         estimate D2E/DX2                !
 ! A10   A(3,4,5)              112.3899         estimate D2E/DX2                !
 ! A11   A(3,4,65)             118.3803         estimate D2E/DX2                !
 ! A12   A(5,4,65)             129.2298         estimate D2E/DX2                !
 ! A13   A(1,5,4)               91.9745         estimate D2E/DX2                !
 ! A14   A(2,6,15)             118.2013         estimate D2E/DX2                !
 ! A15   A(1,8,9)              128.1236         estimate D2E/DX2                !
 ! A16   A(1,8,12)             122.6656         estimate D2E/DX2                !
 ! A17   A(9,8,12)             109.2108         estimate D2E/DX2                !
 ! A18   A(8,9,10)             114.3231         estimate D2E/DX2                !
 ! A19   A(8,9,13)             119.6024         estimate D2E/DX2                !
 ! A20   A(10,9,13)            126.0745         estimate D2E/DX2                !
 ! A21   A(9,10,11)            112.0639         estimate D2E/DX2                !
 ! A22   A(9,10,14)            124.4979         estimate D2E/DX2                !
 ! A23   A(11,10,14)           123.4382         estimate D2E/DX2                !
 ! A24   A(10,11,12)           112.4271         estimate D2E/DX2                !
 ! A25   A(10,11,78)           121.839          estimate D2E/DX2                !
 ! A26   A(12,11,78)           125.7339         estimate D2E/DX2                !
 ! A27   A(8,12,11)             91.9751         estimate D2E/DX2                !
 ! A28   A(9,13,40)            118.1656         estimate D2E/DX2                !
 ! A29   A(6,15,16)            110.7316         estimate D2E/DX2                !
 ! A30   A(6,15,17)            110.7155         estimate D2E/DX2                !
 ! A31   A(6,15,18)            107.0381         estimate D2E/DX2                !
 ! A32   A(16,15,17)           108.6994         estimate D2E/DX2                !
 ! A33   A(16,15,18)           109.8304         estimate D2E/DX2                !
 ! A34   A(17,15,18)           109.8151         estimate D2E/DX2                !
 ! A35   A(15,18,19)           109.8841         estimate D2E/DX2                !
 ! A36   A(15,18,20)           109.8841         estimate D2E/DX2                !
 ! A37   A(15,18,21)           106.8333         estimate D2E/DX2                !
 ! A38   A(19,18,20)           107.9648         estimate D2E/DX2                !
 ! A39   A(19,18,21)           111.1397         estimate D2E/DX2                !
 ! A40   A(20,18,21)           111.1397         estimate D2E/DX2                !
 ! A41   A(18,21,22)           113.4955         estimate D2E/DX2                !
 ! A42   A(21,22,23)           110.9326         estimate D2E/DX2                !
 ! A43   A(21,22,24)           110.9326         estimate D2E/DX2                !
 ! A44   A(21,22,25)           107.5732         estimate D2E/DX2                !
 ! A45   A(23,22,24)           107.9724         estimate D2E/DX2                !
 ! A46   A(23,22,25)           109.7142         estimate D2E/DX2                !
 ! A47   A(24,22,25)           109.7142         estimate D2E/DX2                !
 ! A48   A(22,25,26)           109.642          estimate D2E/DX2                !
 ! A49   A(22,25,27)           109.7029         estimate D2E/DX2                !
 ! A50   A(22,25,28)           107.4968         estimate D2E/DX2                !
 ! A51   A(26,25,27)           107.8606         estimate D2E/DX2                !
 ! A52   A(26,25,28)           111.0815         estimate D2E/DX2                !
 ! A53   A(27,25,28)           111.054          estimate D2E/DX2                !
 ! A54   A(25,28,29)           113.4925         estimate D2E/DX2                !
 ! A55   A(28,29,30)           110.9786         estimate D2E/DX2                !
 ! A56   A(28,29,31)           110.9399         estimate D2E/DX2                !
 ! A57   A(28,29,32)           107.6274         estimate D2E/DX2                !
 ! A58   A(30,29,31)           107.9028         estimate D2E/DX2                !
 ! A59   A(30,29,32)           109.7231         estimate D2E/DX2                !
 ! A60   A(31,29,32)           109.6669         estimate D2E/DX2                !
 ! A61   A(29,32,33)           109.6129         estimate D2E/DX2                !
 ! A62   A(29,32,34)           109.6129         estimate D2E/DX2                !
 ! A63   A(29,32,35)           107.5165         estimate D2E/DX2                !
 ! A64   A(33,32,34)           107.8139         estimate D2E/DX2                !
 ! A65   A(33,32,35)           111.1394         estimate D2E/DX2                !
 ! A66   A(34,32,35)           111.1394         estimate D2E/DX2                !
 ! A67   A(32,35,36)           112.9567         estimate D2E/DX2                !
 ! A68   A(35,36,37)           111.6269         estimate D2E/DX2                !
 ! A69   A(35,36,38)           107.2479         estimate D2E/DX2                !
 ! A70   A(35,36,39)           111.6269         estimate D2E/DX2                !
 ! A71   A(37,36,38)           108.9234         estimate D2E/DX2                !
 ! A72   A(37,36,39)           108.4269         estimate D2E/DX2                !
 ! A73   A(38,36,39)           108.9234         estimate D2E/DX2                !
 ! A74   A(13,40,41)           110.7188         estimate D2E/DX2                !
 ! A75   A(13,40,42)           110.7349         estimate D2E/DX2                !
 ! A76   A(13,40,43)           106.976          estimate D2E/DX2                !
 ! A77   A(41,40,42)           108.7831         estimate D2E/DX2                !
 ! A78   A(41,40,43)           109.7669         estimate D2E/DX2                !
 ! A79   A(42,40,43)           109.8474         estimate D2E/DX2                !
 ! A80   A(40,43,44)           109.9013         estimate D2E/DX2                !
 ! A81   A(40,43,45)           109.8211         estimate D2E/DX2                !
 ! A82   A(40,43,46)           106.8069         estimate D2E/DX2                !
 ! A83   A(44,43,45)           108.0785         estimate D2E/DX2                !
 ! A84   A(44,43,46)           111.1254         estimate D2E/DX2                !
 ! A85   A(45,43,46)           111.1091         estimate D2E/DX2                !
 ! A86   A(43,46,47)           113.4955         estimate D2E/DX2                !
 ! A87   A(46,47,48)           110.9559         estimate D2E/DX2                !
 ! A88   A(46,47,49)           110.9326         estimate D2E/DX2                !
 ! A89   A(46,47,50)           107.5732         estimate D2E/DX2                !
 ! A90   A(48,47,49)           107.9303         estimate D2E/DX2                !
 ! A91   A(48,47,50)           109.7337         estimate D2E/DX2                !
 ! A92   A(49,47,50)           109.7142         estimate D2E/DX2                !
 ! A93   A(47,50,51)           109.6879         estimate D2E/DX2                !
 ! A94   A(47,50,52)           109.7029         estimate D2E/DX2                !
 ! A95   A(47,50,53)           107.4654         estimate D2E/DX2                !
 ! A96   A(51,50,52)           107.8596         estimate D2E/DX2                !
 ! A97   A(51,50,53)           111.0535         estimate D2E/DX2                !
 ! A98   A(52,50,53)           111.0697         estimate D2E/DX2                !
 ! A99   A(50,53,54)           113.461          estimate D2E/DX2                !
 ! A100  A(53,54,55)           110.9625         estimate D2E/DX2                !
 ! A101  A(53,54,56)           110.9399         estimate D2E/DX2                !
 ! A102  A(53,54,57)           107.6008         estimate D2E/DX2                !
 ! A103  A(55,54,56)           107.9335         estimate D2E/DX2                !
 ! A104  A(55,54,57)           109.7216         estimate D2E/DX2                !
 ! A105  A(56,54,57)           109.6805         estimate D2E/DX2                !
 ! A106  A(54,57,58)           109.6677         estimate D2E/DX2                !
 ! A107  A(54,57,59)           109.6266         estimate D2E/DX2                !
 ! A108  A(54,57,60)           107.5087         estimate D2E/DX2                !
 ! A109  A(58,57,59)           107.8213         estimate D2E/DX2                !
 ! A110  A(58,57,60)           111.0826         estimate D2E/DX2                !
 ! A111  A(59,57,60)           111.13           estimate D2E/DX2                !
 ! A112  A(57,60,61)           112.9755         estimate D2E/DX2                !
 ! A113  A(60,61,62)           111.6269         estimate D2E/DX2                !
 ! A114  A(60,61,63)           107.2479         estimate D2E/DX2                !
 ! A115  A(60,61,64)           111.5835         estimate D2E/DX2                !
 ! A116  A(62,61,63)           108.9684         estimate D2E/DX2                !
 ! A117  A(62,61,64)           108.4266         estimate D2E/DX2                !
 ! A118  A(63,61,64)           108.9242         estimate D2E/DX2                !
 ! A119  A(4,65,66)            114.9083         estimate D2E/DX2                !
 ! A120  A(4,65,70)             97.9521         estimate D2E/DX2                !
 ! A121  A(4,65,74)            114.8601         estimate D2E/DX2                !
 ! A122  A(66,65,70)           109.4612         estimate D2E/DX2                !
 ! A123  A(66,65,74)           109.4839         estimate D2E/DX2                !
 ! A124  A(70,65,74)           109.4612         estimate D2E/DX2                !
 ! A125  A(65,66,67)           109.4712         estimate D2E/DX2                !
 ! A126  A(65,66,68)           109.4758         estimate D2E/DX2                !
 ! A127  A(65,66,69)           109.4877         estimate D2E/DX2                !
 ! A128  A(67,66,68)           109.4096         estimate D2E/DX2                !
 ! A129  A(67,66,69)           109.4871         estimate D2E/DX2                !
 ! A130  A(68,66,69)           109.4958         estimate D2E/DX2                !
 ! A131  A(65,70,71)           109.4886         estimate D2E/DX2                !
 ! A132  A(65,70,72)           109.4838         estimate D2E/DX2                !
 ! A133  A(65,70,73)           109.4845         estimate D2E/DX2                !
 ! A134  A(71,70,72)           109.5048         estimate D2E/DX2                !
 ! A135  A(71,70,73)           109.4208         estimate D2E/DX2                !
 ! A136  A(72,70,73)           109.4448         estimate D2E/DX2                !
 ! A137  A(65,74,75)           109.4681         estimate D2E/DX2                !
 ! A138  A(65,74,76)           109.4776         estimate D2E/DX2                !
 ! A139  A(65,74,77)           109.4883         estimate D2E/DX2                !
 ! A140  A(75,74,76)           109.4484         estimate D2E/DX2                !
 ! A141  A(75,74,77)           109.466          estimate D2E/DX2                !
 ! A142  A(76,74,77)           109.4788         estimate D2E/DX2                !
 ! A143  A(11,78,79)           119.848          estimate D2E/DX2                !
 ! A144  A(11,78,83)           111.3953         estimate D2E/DX2                !
 ! A145  A(11,78,87)           114.4622         estimate D2E/DX2                !
 ! A146  A(79,78,83)            97.8625         estimate D2E/DX2                !
 ! A147  A(79,78,87)           107.2649         estimate D2E/DX2                !
 ! A148  A(83,78,87)           103.683          estimate D2E/DX2                !
 ! A149  A(78,79,80)           109.485          estimate D2E/DX2                !
 ! A150  A(78,79,81)           109.4426         estimate D2E/DX2                !
 ! A151  A(78,79,82)           109.4661         estimate D2E/DX2                !
 ! A152  A(80,79,81)           109.4547         estimate D2E/DX2                !
 ! A153  A(80,79,82)           109.4949         estimate D2E/DX2                !
 ! A154  A(81,79,82)           109.484          estimate D2E/DX2                !
 ! A155  A(78,83,84)           109.4504         estimate D2E/DX2                !
 ! A156  A(78,83,85)           109.4678         estimate D2E/DX2                !
 ! A157  A(78,83,86)           109.4704         estimate D2E/DX2                !
 ! A158  A(84,83,85)           109.4989         estimate D2E/DX2                !
 ! A159  A(84,83,86)           109.4681         estimate D2E/DX2                !
 ! A160  A(85,83,86)           109.4717         estimate D2E/DX2                !
 ! A161  A(78,87,88)           109.4847         estimate D2E/DX2                !
 ! A162  A(78,87,89)           109.448          estimate D2E/DX2                !
 ! A163  A(78,87,90)           109.4301         estimate D2E/DX2                !
 ! A164  A(88,87,89)           109.5353         estimate D2E/DX2                !
 ! A165  A(88,87,90)           109.48           estimate D2E/DX2                !
 ! A166  A(89,87,90)           109.4492         estimate D2E/DX2                !
 ! D1    D(5,1,2,3)              0.0            estimate D2E/DX2                !
 ! D2    D(5,1,2,6)            179.9517         estimate D2E/DX2                !
 ! D3    D(8,1,2,3)            180.0            estimate D2E/DX2                !
 ! D4    D(8,1,2,6)             -0.0483         estimate D2E/DX2                !
 ! D5    D(2,1,5,4)              0.0            estimate D2E/DX2                !
 ! D6    D(8,1,5,4)           -180.0            estimate D2E/DX2                !
 ! D7    D(2,1,8,9)           -150.0            estimate D2E/DX2                !
 ! D8    D(2,1,8,12)            30.0387         estimate D2E/DX2                !
 ! D9    D(5,1,8,9)             30.0            Frozen                          !
 ! D10   D(5,1,8,12)          -149.9613         estimate D2E/DX2                !
 ! D11   D(1,2,3,4)              0.0            estimate D2E/DX2                !
 ! D12   D(1,2,3,7)            179.9357         estimate D2E/DX2                !
 ! D13   D(6,2,3,4)           -179.948          estimate D2E/DX2                !
 ! D14   D(6,2,3,7)             -0.0123         estimate D2E/DX2                !
 ! D15   D(1,2,6,15)          -179.9987         estimate D2E/DX2                !
 ! D16   D(3,2,6,15)            -0.0532         estimate D2E/DX2                !
 ! D17   D(2,3,4,5)              0.0            estimate D2E/DX2                !
 ! D18   D(2,3,4,65)           179.9696         estimate D2E/DX2                !
 ! D19   D(7,3,4,5)           -179.9364         estimate D2E/DX2                !
 ! D20   D(7,3,4,65)             0.0332         estimate D2E/DX2                !
 ! D21   D(3,4,5,1)              0.0            estimate D2E/DX2                !
 ! D22   D(65,4,5,1)          -179.9654         estimate D2E/DX2                !
 ! D23   D(3,4,65,66)          -64.1551         estimate D2E/DX2                !
 ! D24   D(3,4,65,70)         -179.9893         estimate D2E/DX2                !
 ! D25   D(3,4,65,74)           64.1948         estimate D2E/DX2                !
 ! D26   D(5,4,65,66)          115.8086         estimate D2E/DX2                !
 ! D27   D(5,4,65,70)           -0.0256         estimate D2E/DX2                !
 ! D28   D(5,4,65,74)         -115.8415         estimate D2E/DX2                !
 ! D29   D(2,6,15,16)           60.3535         estimate D2E/DX2                !
 ! D30   D(2,6,15,17)          -60.2859         estimate D2E/DX2                !
 ! D31   D(2,6,15,18)         -179.9523         estimate D2E/DX2                !
 ! D32   D(1,8,9,10)           180.0            estimate D2E/DX2                !
 ! D33   D(1,8,9,13)             0.0            estimate D2E/DX2                !
 ! D34   D(12,8,9,10)           -0.0345         estimate D2E/DX2                !
 ! D35   D(12,8,9,13)          179.9655         estimate D2E/DX2                !
 ! D36   D(1,8,12,11)         -179.9866         estimate D2E/DX2                !
 ! D37   D(9,8,12,11)            0.0457         estimate D2E/DX2                !
 ! D38   D(8,9,10,11)            0.0            estimate D2E/DX2                !
 ! D39   D(8,9,10,14)          180.0            estimate D2E/DX2                !
 ! D40   D(13,9,10,11)         180.0            estimate D2E/DX2                !
 ! D41   D(13,9,10,14)           0.0            estimate D2E/DX2                !
 ! D42   D(8,9,13,40)         -180.0            estimate D2E/DX2                !
 ! D43   D(10,9,13,40)           0.0            estimate D2E/DX2                !
 ! D44   D(9,10,11,12)           0.0359         estimate D2E/DX2                !
 ! D45   D(9,10,11,78)         179.9685         estimate D2E/DX2                !
 ! D46   D(14,10,11,12)       -179.9641         estimate D2E/DX2                !
 ! D47   D(14,10,11,78)         -0.0315         estimate D2E/DX2                !
 ! D48   D(10,11,12,8)          -0.0474         estimate D2E/DX2                !
 ! D49   D(78,11,12,8)        -179.9769         estimate D2E/DX2                !
 ! D50   D(10,11,78,79)        129.5663         estimate D2E/DX2                !
 ! D51   D(10,11,78,83)       -117.2167         estimate D2E/DX2                !
 ! D52   D(10,11,78,87)         -0.0002         estimate D2E/DX2                !
 ! D53   D(12,11,78,79)        -50.5105         estimate D2E/DX2                !
 ! D54   D(12,11,78,83)         62.7065         estimate D2E/DX2                !
 ! D55   D(12,11,78,87)        179.923          estimate D2E/DX2                !
 ! D56   D(9,13,40,41)          60.3884         estimate D2E/DX2                !
 ! D57   D(9,13,40,42)         -60.3608         estimate D2E/DX2                !
 ! D58   D(9,13,40,43)         179.9605         estimate D2E/DX2                !
 ! D59   D(6,15,18,19)         -59.3294         estimate D2E/DX2                !
 ! D60   D(6,15,18,20)          59.3294         estimate D2E/DX2                !
 ! D61   D(6,15,18,21)        -180.0            estimate D2E/DX2                !
 ! D62   D(16,15,18,19)         60.9419         estimate D2E/DX2                !
 ! D63   D(16,15,18,20)        179.6007         estimate D2E/DX2                !
 ! D64   D(16,15,18,21)        -59.7287         estimate D2E/DX2                !
 ! D65   D(17,15,18,19)       -179.5727         estimate D2E/DX2                !
 ! D66   D(17,15,18,20)        -60.9139         estimate D2E/DX2                !
 ! D67   D(17,15,18,21)         59.7567         estimate D2E/DX2                !
 ! D68   D(15,18,21,22)        180.0            estimate D2E/DX2                !
 ! D69   D(19,18,21,22)         60.1343         estimate D2E/DX2                !
 ! D70   D(20,18,21,22)        -60.1343         estimate D2E/DX2                !
 ! D71   D(18,21,22,23)        -60.0008         estimate D2E/DX2                !
 ! D72   D(18,21,22,24)         60.0008         estimate D2E/DX2                !
 ! D73   D(18,21,22,25)        180.0            estimate D2E/DX2                !
 ! D74   D(21,22,25,26)         59.139          estimate D2E/DX2                !
 ! D75   D(21,22,25,27)        -59.1368         estimate D2E/DX2                !
 ! D76   D(21,22,25,28)        180.0            estimate D2E/DX2                !
 ! D77   D(23,22,25,26)        -61.6299         estimate D2E/DX2                !
 ! D78   D(23,22,25,27)       -179.9057         estimate D2E/DX2                !
 ! D79   D(23,22,25,28)         59.2311         estimate D2E/DX2                !
 ! D80   D(24,22,25,26)        179.9079         estimate D2E/DX2                !
 ! D81   D(24,22,25,27)         61.6321         estimate D2E/DX2                !
 ! D82   D(24,22,25,28)        -59.2311         estimate D2E/DX2                !
 ! D83   D(22,25,28,29)       -179.9559         estimate D2E/DX2                !
 ! D84   D(26,25,28,29)        -60.0053         estimate D2E/DX2                !
 ! D85   D(27,25,28,29)         60.0352         estimate D2E/DX2                !
 ! D86   D(25,28,29,30)         59.9242         estimate D2E/DX2                !
 ! D87   D(25,28,29,31)        -60.0251         estimate D2E/DX2                !
 ! D88   D(25,28,29,32)        179.9953         estimate D2E/DX2                !
 ! D89   D(28,29,32,33)         59.0314         estimate D2E/DX2                !
 ! D90   D(28,29,32,34)        -59.1164         estimate D2E/DX2                !
 ! D91   D(28,29,32,35)        179.9575         estimate D2E/DX2                !
 ! D92   D(30,29,32,33)        179.8942         estimate D2E/DX2                !
 ! D93   D(30,29,32,34)         61.7464         estimate D2E/DX2                !
 ! D94   D(30,29,32,35)        -59.1797         estimate D2E/DX2                !
 ! D95   D(31,29,32,33)        -61.7516         estimate D2E/DX2                !
 ! D96   D(31,29,32,34)       -179.8994         estimate D2E/DX2                !
 ! D97   D(31,29,32,35)         59.1745         estimate D2E/DX2                !
 ! D98   D(29,32,35,36)        180.0            estimate D2E/DX2                !
 ! D99   D(33,32,35,36)        -60.0386         estimate D2E/DX2                !
 ! D100  D(34,32,35,36)         60.0386         estimate D2E/DX2                !
 ! D101  D(32,35,36,37)         60.7659         estimate D2E/DX2                !
 ! D102  D(32,35,36,38)       -180.0            estimate D2E/DX2                !
 ! D103  D(32,35,36,39)        -60.7659         estimate D2E/DX2                !
 ! D104  D(13,40,43,44)        -59.3525         estimate D2E/DX2                !
 ! D105  D(13,40,43,45)         59.4177         estimate D2E/DX2                !
 ! D106  D(13,40,43,46)       -179.9999         estimate D2E/DX2                !
 ! D107  D(41,40,43,44)         60.8307         estimate D2E/DX2                !
 ! D108  D(41,40,43,45)        179.6008         estimate D2E/DX2                !
 ! D109  D(41,40,43,46)        -59.8167         estimate D2E/DX2                !
 ! D110  D(42,40,43,44)       -179.6004         estimate D2E/DX2                !
 ! D111  D(42,40,43,45)        -60.8302         estimate D2E/DX2                !
 ! D112  D(42,40,43,46)         59.7523         estimate D2E/DX2                !
 ! D113  D(40,43,46,47)       -179.9606         estimate D2E/DX2                !
 ! D114  D(44,43,46,47)         60.1773         estimate D2E/DX2                !
 ! D115  D(45,43,46,47)        -60.2051         estimate D2E/DX2                !
 ! D116  D(43,46,47,48)        -59.9632         estimate D2E/DX2                !
 ! D117  D(43,46,47,49)         60.0008         estimate D2E/DX2                !
 ! D118  D(43,46,47,50)        180.0            estimate D2E/DX2                !
 ! D119  D(46,47,50,51)         59.1652         estimate D2E/DX2                !
 ! D120  D(46,47,50,52)        -59.1368         estimate D2E/DX2                !
 ! D121  D(46,47,50,53)        180.0            estimate D2E/DX2                !
 ! D122  D(48,47,50,51)        -61.6434         estimate D2E/DX2                !
 ! D123  D(48,47,50,52)       -179.9454         estimate D2E/DX2                !
 ! D124  D(48,47,50,53)         59.1914         estimate D2E/DX2                !
 ! D125  D(49,47,50,51)        179.9341         estimate D2E/DX2                !
 ! D126  D(49,47,50,52)         61.6321         estimate D2E/DX2                !
 ! D127  D(49,47,50,53)        -59.2311         estimate D2E/DX2                !
 ! D128  D(47,50,53,54)       -179.9559         estimate D2E/DX2                !
 ! D129  D(51,50,53,54)        -59.9853         estimate D2E/DX2                !
 ! D130  D(52,50,53,54)         60.0456         estimate D2E/DX2                !
 ! D131  D(50,53,54,55)         59.9522         estimate D2E/DX2                !
 ! D132  D(50,53,54,56)        -60.0251         estimate D2E/DX2                !
 ! D133  D(50,53,54,57)        179.9953         estimate D2E/DX2                !
 ! D134  D(53,54,57,58)         59.0731         estimate D2E/DX2                !
 ! D135  D(53,54,57,59)        -59.1245         estimate D2E/DX2                !
 ! D136  D(53,54,57,60)        179.9576         estimate D2E/DX2                !
 ! D137  D(55,54,57,58)        179.8993         estimate D2E/DX2                !
 ! D138  D(55,54,57,59)         61.7017         estimate D2E/DX2                !
 ! D139  D(55,54,57,60)        -59.2163         estimate D2E/DX2                !
 ! D140  D(56,54,57,58)        -61.7018         estimate D2E/DX2                !
 ! D141  D(56,54,57,59)       -179.8993         estimate D2E/DX2                !
 ! D142  D(56,54,57,60)         59.1827         estimate D2E/DX2                !
 ! D143  D(54,57,60,61)        180.0            estimate D2E/DX2                !
 ! D144  D(58,57,60,61)        -60.01           estimate D2E/DX2                !
 ! D145  D(59,57,60,61)         60.0324         estimate D2E/DX2                !
 ! D146  D(57,60,61,62)         60.7659         estimate D2E/DX2                !
 ! D147  D(57,60,61,63)       -179.945          estimate D2E/DX2                !
 ! D148  D(57,60,61,64)        -60.7348         estimate D2E/DX2                !
 ! D149  D(4,65,66,67)          78.8333         estimate D2E/DX2                !
 ! D150  D(4,65,66,68)        -161.2394         estimate D2E/DX2                !
 ! D151  D(4,65,66,69)         -41.1964         estimate D2E/DX2                !
 ! D152  D(70,65,66,67)       -172.149          estimate D2E/DX2                !
 ! D153  D(70,65,66,68)        -52.2217         estimate D2E/DX2                !
 ! D154  D(70,65,66,69)         67.8214         estimate D2E/DX2                !
 ! D155  D(74,65,66,67)        -52.1598         estimate D2E/DX2                !
 ! D156  D(74,65,66,68)         67.7675         estimate D2E/DX2                !
 ! D157  D(74,65,66,69)       -172.1894         estimate D2E/DX2                !
 ! D158  D(4,65,70,71)         -60.1295         estimate D2E/DX2                !
 ! D159  D(4,65,70,72)          59.93           estimate D2E/DX2                !
 ! D160  D(4,65,70,73)         179.9135         estimate D2E/DX2                !
 ! D161  D(66,65,70,71)        179.8451         estimate D2E/DX2                !
 ! D162  D(66,65,70,72)        -60.0955         estimate D2E/DX2                !
 ! D163  D(66,65,70,73)         59.888          estimate D2E/DX2                !
 ! D164  D(74,65,70,71)         59.8419         estimate D2E/DX2                !
 ! D165  D(74,65,70,72)        179.9014         estimate D2E/DX2                !
 ! D166  D(74,65,70,73)        -60.1151         estimate D2E/DX2                !
 ! D167  D(4,65,74,75)         164.2095         estimate D2E/DX2                !
 ! D168  D(4,65,74,76)         -75.8164         estimate D2E/DX2                !
 ! D169  D(4,65,74,77)          44.2073         estimate D2E/DX2                !
 ! D170  D(66,65,74,75)        -64.7717         estimate D2E/DX2                !
 ! D171  D(66,65,74,76)         55.2024         estimate D2E/DX2                !
 ! D172  D(66,65,74,77)        175.2261         estimate D2E/DX2                !
 ! D173  D(70,65,74,75)         55.2175         estimate D2E/DX2                !
 ! D174  D(70,65,74,76)        175.1916         estimate D2E/DX2                !
 ! D175  D(70,65,74,77)        -64.7847         estimate D2E/DX2                !
 ! D176  D(11,78,79,80)         80.7584         estimate D2E/DX2                !
 ! D177  D(11,78,79,81)       -159.2709         estimate D2E/DX2                !
 ! D178  D(11,78,79,82)        -39.2759         estimate D2E/DX2                !
 ! D179  D(83,78,79,80)        -39.4951         estimate D2E/DX2                !
 ! D180  D(83,78,79,81)         80.4757         estimate D2E/DX2                !
 ! D181  D(83,78,79,82)       -159.5294         estimate D2E/DX2                !
 ! D182  D(87,78,79,80)       -146.5315         estimate D2E/DX2                !
 ! D183  D(87,78,79,81)        -26.5608         estimate D2E/DX2                !
 ! D184  D(87,78,79,82)         93.4342         estimate D2E/DX2                !
 ! D185  D(11,78,83,84)        164.9842         estimate D2E/DX2                !
 ! D186  D(11,78,83,85)        -74.9968         estimate D2E/DX2                !
 ! D187  D(11,78,83,86)         45.0012         estimate D2E/DX2                !
 ! D188  D(79,78,83,84)        -68.5946         estimate D2E/DX2                !
 ! D189  D(79,78,83,85)         51.4244         estimate D2E/DX2                !
 ! D190  D(79,78,83,86)        171.4224         estimate D2E/DX2                !
 ! D191  D(87,78,83,84)         41.4029         estimate D2E/DX2                !
 ! D192  D(87,78,83,85)        161.4219         estimate D2E/DX2                !
 ! D193  D(87,78,83,86)        -78.5801         estimate D2E/DX2                !
 ! D194  D(11,78,87,88)        -58.6701         estimate D2E/DX2                !
 ! D195  D(11,78,87,89)         61.4024         estimate D2E/DX2                !
 ! D196  D(11,78,87,90)       -178.6639         estimate D2E/DX2                !
 ! D197  D(79,78,87,88)        165.7709         estimate D2E/DX2                !
 ! D198  D(79,78,87,89)        -74.1565         estimate D2E/DX2                !
 ! D199  D(79,78,87,90)         45.7771         estimate D2E/DX2                !
 ! D200  D(83,78,87,88)         62.8797         estimate D2E/DX2                !
 ! D201  D(83,78,87,89)       -177.0478         estimate D2E/DX2                !
 ! D202  D(83,78,87,90)        -57.1141         estimate D2E/DX2                !
 --------------------------------------------------------------------------------
 Trust Radius=3.00D-01 FncErr=1.00D-07 GrdErr=1.00D-06 EigMax=2.50D+02 EigMin=1.00D-04
 Number of steps in this run=    469 maximum allowed number of steps=    540.
 GradGradGradGradGradGradGradGradGradGradGradGradGradGradGradGradGradGrad

 Leave Link  103 at Tue Mar  3 11:49:17 2020, MaxMem=  6710886400 cpu:               0.2 elap:               0.0
 (Enter /apps/gaussian/g16-a03/l202.exe)
 Stoichiometry    C28H50O8S2Sn2
 Framework group  C1[X(C28H50O8S2Sn2)]
 Deg. of freedom   264
 Full point group                 C1      NOp   1
 Largest Abelian subgroup         C1      NOp   1
 Largest concise Abelian subgroup C1      NOp   1
                         Standard orientation:                         
 ---------------------------------------------------------------------
 Center     Atomic      Atomic             Coordinates (Angstroms)
 Number     Number       Type             X           Y           Z
 ---------------------------------------------------------------------
      1          6           0        0.121781   -0.711532   -0.750758
      2          6           0        1.321806   -1.346841   -0.472749
      3          6           0        1.269962   -2.765963   -0.573237
      4          6           0        0.030446   -3.210702   -0.927733
      5         16           0       -1.094749   -1.918437   -1.145802
      6          8           0        2.415962   -0.604013   -0.139438
      7          1           0        2.109341   -3.421311   -0.392718
      8          6           0       -0.161025    0.704814   -0.738805
      9          6           0       -1.361661    1.335237   -0.452439
     10          6           0       -1.310593    2.755905   -0.527981
     11          6           0       -0.069353    3.206672   -0.872293
     12         16           0        1.056090    1.919311   -1.111274
     13          8           0       -2.456269    0.586814   -0.133441
     14          1           0       -2.149145    3.409067   -0.337294
     15          6           0        3.633980   -1.287674    0.140365
     16          1           0        3.963167   -1.865492   -0.730167
     17          1           0        3.509270   -1.970630    0.988811
     18          6           0        4.669434   -0.231045    0.478404
     19          1           0        4.789822    0.458873   -0.368686
     20          1           0        4.336690    0.353912    1.347396
     21          8           0        5.876816   -0.914446    0.755414
     22          6           0        6.949417   -0.052373    1.091362
     23          1           0        7.164644    0.645202    0.269783
     24          1           0        6.711512    0.540241    1.985866
     25          6           0        8.166957   -0.918687    1.359868
     26          1           0        8.402920   -1.512252    0.464793
     27          1           0        7.951010   -1.617178    2.180164
     28          8           0        9.236657   -0.056543    1.695054
     29          6           0       10.446235   -0.738934    1.971670
     30          1           0       10.774849   -1.324854    1.102564
     31          1           0       10.322939   -1.429780    2.817935
     32          6           0       11.495124    0.304389    2.312443
     33          1           0       11.163362    0.891318    3.181816
     34          1           0       11.616494    0.996280    1.465734
     35          8           0       12.700571   -0.378965    2.588946
     36          6           0       13.762591    0.490355    2.922543
     37          1           0       13.536468    1.079490    3.823053
     38          1           0       14.638751   -0.129028    3.116010
     39          1           0       13.991129    1.184805    2.101180
     40          6           0       -3.674895    1.266551    0.155470
     41          1           0       -4.002468    1.858316   -0.706560
     42          1           0       -3.552297    1.933674    1.014959
     43          6           0       -4.711320    0.203207    0.472004
     44          1           0       -4.829852   -0.470943   -0.387206
     45          1           0       -4.380186   -0.395670    1.332380
     46          8           0       -5.919311    0.881733    0.758188
     47          6           0       -6.992621    0.013994    1.076839
     48          1           0       -7.206063   -0.670250    0.242889
     49          1           0       -6.756643   -0.594020    1.961463
     50          6           0       -8.210756    0.875553    1.357663
     51          1           0       -8.445759    1.484547    0.472741
     52          1           0       -7.996599    1.559735    2.190394
     53          8           0       -9.281171    0.006757    1.675604
     54          6           0      -10.491358    0.684280    1.961371
     55          1           0      -10.818353    1.285120    1.100861
     56          1           0      -10.369908    1.360371    2.819733
     57          6           0      -11.539996   -0.364785    2.281508
     58          1           0      -11.211074   -0.966663    3.141558
     59          1           0      -11.659519   -1.041913    1.422687
     60          8           0      -12.747020    0.313721    2.567439
     61          6           0      -13.809743   -0.561223    2.883637
     62          1           0      -13.585560   -1.165862    3.774301
     63          1           0      -14.686585    0.054692    3.084933
     64          1           0      -14.035522   -1.241366    2.049630
     65         50           0       -0.272242   -5.318334   -1.137604
     66          6           0        0.870389   -6.251794   -2.728921
     67          1           0        1.878544   -6.401597   -2.403498
     68          1           0        0.432227   -7.196654   -2.975971
     69          1           0        0.864091   -5.619032   -3.591200
     70          6           0       -2.370517   -5.266892   -1.688508
     71          1           0       -2.934753   -4.809100   -0.902924
     72          1           0       -2.489234   -4.701917   -2.589798
     73          1           0       -2.723172   -6.265267   -1.844763
     74          6           0       -0.032817   -6.461009    0.691661
     75          1           0       -0.461513   -7.433507    0.563534
     76          1           0        1.008780   -6.557733    0.918300
     77          1           0       -0.527001   -5.956761    1.494440
     78         50           0        0.357420    5.294164   -1.076305
     79          6           0        2.074615    6.149825   -0.061667
     80          1           0        2.959521    5.951530   -0.628892
     81          1           0        1.941693    7.207389    0.033356
     82          1           0        2.168377    5.713151    0.910580
     83          6           0        0.936395    5.788945   -3.108452
     84          1           0        0.887976    6.849241   -3.244625
     85          1           0        1.935415    5.451411   -3.286637
     86          1           0        0.270184    5.310270   -3.795759
     87          6           0       -1.333498    6.598720   -0.692276
     88          1           0       -2.129485    6.358041   -1.364342
     89          1           0       -1.664416    6.465460    0.316703
     90          1           0       -1.038194    7.616738   -0.838889
 ---------------------------------------------------------------------
 Rotational constants (GHZ):           0.0399964           0.0179786           0.0135267
 Leave Link  202 at Tue Mar  3 11:49:17 2020, MaxMem=  6710886400 cpu:               0.0 elap:               0.0
 (Enter /apps/gaussian/g16-a03/l301.exe)
 Standard basis: LANL2DZ (5D, 7F)
 Ernie: Thresh=  0.10000D-02 Tol=  0.10000D-05 Strict=F.
 There are   456 symmetry adapted cartesian basis functions of A   symmetry.
 There are   456 symmetry adapted basis functions of A   symmetry.
   456 basis functions,  1148 primitive gaussians,   456 cartesian basis functions
   151 alpha electrons      151 beta electrons
       nuclear repulsion energy      3843.9034035109 Hartrees.



 Warning!  S  atom    5 may be hypervalent but has no d functions.
 Warning!  S  atom   12 may be hypervalent but has no d functions.



 IExCor=  402 DFT=T Ex+Corr=B3LYP ExCW=0 ScaHFX=  0.200000
 ScaDFX=  0.800000  0.720000  1.000000  0.810000 ScalE2=  1.000000  1.000000
 IRadAn=      5 IRanWt=     -1 IRanGd=            0 ICorTp=0 IEmpDi=  4
 NAtoms=   90 NActive=   90 NUniq=   90 SFac= 1.00D+00 NAtFMM=   60 NAOKFM=T Big=T
 Integral buffers will be    131072 words long.
 Raffenetti 2 integral format.
 Two-electron integral symmetry is turned on.
 Leave Link  301 at Tue Mar  3 11:49:17 2020, MaxMem=  6710886400 cpu:               0.5 elap:               0.1
 (Enter /apps/gaussian/g16-a03/l302.exe)
 NPDir=0 NMtPBC=     1 NCelOv=     1 NCel=       1 NClECP=     1 NCelD=      1
         NCelK=      1 NCelE2=     1 NClLst=     1 CellRange=     0.0.
 One-electron integrals computed using PRISM.
 One-electron integral symmetry used in STVInt
   1 Symmetry operations used in ECPInt.
 ECPInt:  NShTT=   43956 NPrTT=  293396 LenC2=   25406 LenP2D=   85658.
 LDataN:  DoStor=T MaxTD1= 4 Len=   56
 NBasis=   456 RedAO= T EigKep=  1.07D-03  NBF=   456
 NBsUse=   456 1.00D-06 EigRej= -1.00D+00 NBFU=   456
 Precomputing XC quadrature grid using
 IXCGrd= 4 IRadAn=           5 IRanWt=          -1 IRanGd=           0 AccXCQ= 0.00D+00.
 Defaulting to unpruned grid for atomic number  50.
 Defaulting to unpruned grid for atomic number  50.
 Generated NRdTot=       0 NPtTot=           0 NUsed=           0 NTot=          32
 NSgBfM=   388   388   388   388   388 MxSgAt=    90 MxSgA2=    90.
 Leave Link  302 at Tue Mar  3 11:49:21 2020, MaxMem=  6710886400 cpu:              24.0 elap:               3.0
 (Enter /apps/gaussian/g16-a03/l303.exe)
 DipDrv:  MaxL=1.
 Leave Link  303 at Tue Mar  3 11:49:21 2020, MaxMem=  6710886400 cpu:               1.0 elap:               0.1
 (Enter /apps/gaussian/g16-a03/l401.exe)
 ExpMin= 6.30D-02 ExpMax= 7.82D+03 ExpMxC= 2.73D+02 IAcc=3 IRadAn=         5 AccDes= 0.00D+00
 Harris functional with IExCor=  402 and IRadAn=       5 diagonalized for initial guess.
 HarFok:  IExCor=  402 AccDes= 0.00D+00 IRadAn=         5 IDoV= 1 UseB2=F ITyADJ=14
 ICtDFT=  3500011 ScaDFX=  1.000000  1.000000  1.000000  1.000000
 Defaulting to unpruned grid for atomic number  50.
 FoFCou: FMM=F IPFlag=           0 FMFlag=      100000 FMFlg1=        2001
         NFxFlg=           0 DoJE=T BraDBF=F KetDBF=T FulRan=T
         wScrn=  0.000000 ICntrl=       500 IOpCl=  0 I1Cent=   200000004 NGrid=           0
         NMat0=    1 NMatS0=      1 NMatT0=    0 NMatD0=    1 NMtDS0=    0 NMtDT0=    0
 Petite list used in FoFCou.
 Harris En= -1725.68914363297    
 JPrj=0 DoOrth=F DoCkMO=F.
 Leave Link  401 at Tue Mar  3 11:49:28 2020, MaxMem=  6710886400 cpu:              60.7 elap:               7.6
 (Enter /apps/gaussian/g16-a03/l502.exe)
 Integral symmetry usage will be decided dynamically.
 Closed shell SCF:
 Using DIIS extrapolation, IDIIS=  1040.
 NGot=  6710886400 LenX=  6710460430 LenY=  6710252038
 Requested convergence on RMS density matrix=1.00D-08 within 128 cycles.
 Requested convergence on MAX density matrix=1.00D-06.
 Requested convergence on             energy=1.00D-06.
 No special actions if energy rises.
 Fock matrices will be formed incrementally for  20 cycles.
 Integral accuracy reduced to 1.0D-05 until final iterations.

 Cycle   1  Pass 0  IDiag  1:
 FoFJK:  IHMeth= 1 ICntrl=       0 DoSepK=F KAlg= 0 I1Cent=           0 FoldK=F
 IRaf= 720000000 NMat=       1 IRICut=       1 DoRegI=T DoRafI=F ISym2E= 0 IDoP0=0 IntGTp=1.
 FoFCou: FMM=T IPFlag=           0 FMFlag=      100000 FMFlg1=        2001
         NFxFlg=           0 DoJE=F BraDBF=F KetDBF=F FulRan=T
         wScrn=  0.000000 ICntrl=         0 IOpCl=  0 I1Cent=           0 NGrid=           0
         NMat0=    1 NMatS0=      1 NMatT0=    0 NMatD0=    1 NMtDS0=    0 NMtDT0=    0
 Symmetry not used in FoFCou.
 FMM levels:  10  Number of levels for PrismC:   9
 Defaulting to unpruned grid for atomic number  50.
 Defaulting to unpruned grid for atomic number  50.
 Defaulting to unpruned grid for atomic number  50.
 Defaulting to unpruned grid for atomic number  50.
 Defaulting to unpruned grid for atomic number  50.
 Defaulting to unpruned grid for atomic number  50.
 Defaulting to unpruned grid for atomic number  50.
 Defaulting to unpruned grid for atomic number  50.
 E= -1723.95771529391    
 DIIS: error= 6.85D-02 at cycle   1 NSaved=   1.
 NSaved= 1 IEnMin= 1 EnMin= -1723.95771529391     IErMin= 1 ErrMin= 6.85D-02
 ErrMax= 6.85D-02  0.00D+00 EMaxC= 1.00D-01 BMatC= 1.18D+00 BMatP= 1.18D+00
 IDIUse=3 WtCom= 3.15D-01 WtEn= 6.85D-01
 Coeff-Com:  0.100D+01
 Coeff-En:   0.100D+01
 Coeff:      0.100D+01
 Gap=     0.086 Goal=   None    Shift=    0.000
 GapD=    0.086 DampG=0.500 DampE=0.500 DampFc=0.2500 IDamp=-1.
 Damping current iteration by 2.50D-01
 RMSDP=6.47D-03 MaxDP=3.15D-01              OVMax= 2.94D-01

 Cycle   2  Pass 0  IDiag  1:
 RMSU=  1.58D-03    CP:  9.84D-01
 E= -1724.51819640596     Delta-E=       -0.560481112048 Rises=F Damp=T
 DIIS: error= 2.94D-02 at cycle   2 NSaved=   2.
 NSaved= 2 IEnMin= 2 EnMin= -1724.51819640596     IErMin= 2 ErrMin= 2.94D-02
 ErrMax= 2.94D-02  0.00D+00 EMaxC= 1.00D-01 BMatC= 2.48D-01 BMatP= 1.18D+00
 IDIUse=3 WtCom= 7.06D-01 WtEn= 2.94D-01
 Coeff-Com: -0.771D+00 0.177D+01
 Coeff-En:   0.000D+00 0.100D+01
 Coeff:     -0.544D+00 0.154D+01
 Gap=     0.151 Goal=   None    Shift=    0.000
 RMSDP=2.04D-03 MaxDP=1.20D-01 DE=-5.60D-01 OVMax= 1.95D-01

 Cycle   3  Pass 0  IDiag  1:
 RMSU=  1.35D-03    CP:  9.65D-01  1.94D+00
 E= -1725.37996082008     Delta-E=       -0.861764414124 Rises=F Damp=F
 DIIS: error= 1.34D-02 at cycle   3 NSaved=   3.
 NSaved= 3 IEnMin= 3 EnMin= -1725.37996082008     IErMin= 3 ErrMin= 1.34D-02
 ErrMax= 1.34D-02  0.00D+00 EMaxC= 1.00D-01 BMatC= 4.14D-02 BMatP= 2.48D-01
 IDIUse=3 WtCom= 8.66D-01 WtEn= 1.34D-01
 Coeff-Com: -0.109D+00 0.475D+00 0.634D+00
 Coeff-En:   0.000D+00 0.000D+00 0.100D+01
 Coeff:     -0.943D-01 0.411D+00 0.683D+00
 Gap=     0.148 Goal=   None    Shift=    0.000
 RMSDP=7.52D-04 MaxDP=5.39D-02 DE=-8.62D-01 OVMax= 5.99D-02

 Cycle   4  Pass 0  IDiag  1:
 RMSU=  5.77D-04    CP:  9.72D-01  1.68D+00  8.44D-01
 E= -1725.41784371569     Delta-E=       -0.037882895612 Rises=F Damp=F
 DIIS: error= 7.81D-03 at cycle   4 NSaved=   4.
 NSaved= 4 IEnMin= 4 EnMin= -1725.41784371569     IErMin= 4 ErrMin= 7.81D-03
 ErrMax= 7.81D-03  0.00D+00 EMaxC= 1.00D-01 BMatC= 1.11D-02 BMatP= 4.14D-02
 IDIUse=3 WtCom= 9.22D-01 WtEn= 7.81D-02
 Coeff-Com:  0.930D-01-0.671D-01 0.462D+00 0.512D+00
 Coeff-En:   0.000D+00 0.000D+00 0.158D+00 0.842D+00
 Coeff:      0.858D-01-0.618D-01 0.438D+00 0.538D+00
 Gap=     0.144 Goal=   None    Shift=    0.000
 RMSDP=4.17D-04 MaxDP=3.88D-02 DE=-3.79D-02 OVMax= 4.92D-02

 Cycle   5  Pass 0  IDiag  1:
 RMSU=  1.75D-04    CP:  9.70D-01  1.70D+00  9.06D-01  3.65D-01
 E= -1725.42822566886     Delta-E=       -0.010381953170 Rises=F Damp=F
 DIIS: error= 3.89D-03 at cycle   5 NSaved=   5.
 NSaved= 5 IEnMin= 5 EnMin= -1725.42822566886     IErMin= 5 ErrMin= 3.89D-03
 ErrMax= 3.89D-03  0.00D+00 EMaxC= 1.00D-01 BMatC= 1.61D-03 BMatP= 1.11D-02
 IDIUse=3 WtCom= 9.61D-01 WtEn= 3.89D-02
 Coeff-Com:  0.632D-01-0.675D-01 0.253D+00 0.364D+00 0.387D+00
 Coeff-En:   0.000D+00 0.000D+00 0.000D+00 0.129D+00 0.871D+00
 Coeff:      0.608D-01-0.649D-01 0.244D+00 0.355D+00 0.406D+00
 Gap=     0.146 Goal=   None    Shift=    0.000
 RMSDP=1.41D-04 MaxDP=1.23D-02 DE=-1.04D-02 OVMax= 1.86D-02

 Cycle   6  Pass 0  IDiag  1:
 RMSU=  5.24D-05    CP:  9.71D-01  1.70D+00  9.03D-01  5.32D-01  4.89D-01
 E= -1725.42999835214     Delta-E=       -0.001772683279 Rises=F Damp=F
 DIIS: error= 7.80D-04 at cycle   6 NSaved=   6.
 NSaved= 6 IEnMin= 6 EnMin= -1725.42999835214     IErMin= 6 ErrMin= 7.80D-04
 ErrMax= 7.80D-04  0.00D+00 EMaxC= 1.00D-01 BMatC= 7.73D-05 BMatP= 1.61D-03
 IDIUse=3 WtCom= 9.92D-01 WtEn= 7.80D-03
 Coeff-Com:  0.239D-01-0.302D-01 0.776D-01 0.127D+00 0.228D+00 0.574D+00
 Coeff-En:   0.000D+00 0.000D+00 0.000D+00 0.000D+00 0.000D+00 0.100D+01
 Coeff:      0.237D-01-0.300D-01 0.770D-01 0.126D+00 0.226D+00 0.577D+00
 Gap=     0.146 Goal=   None    Shift=    0.000
 RMSDP=3.40D-05 MaxDP=2.73D-03 DE=-1.77D-03 OVMax= 3.59D-03

 Cycle   7  Pass 0  IDiag  1:
 RMSU=  2.14D-05    CP:  9.71D-01  1.70D+00  9.10D-01  5.11D-01  5.45D-01
                    CP:  6.32D-01
 E= -1725.43007479881     Delta-E=       -0.000076446665 Rises=F Damp=F
 DIIS: error= 1.63D-04 at cycle   7 NSaved=   7.
 NSaved= 7 IEnMin= 7 EnMin= -1725.43007479881     IErMin= 7 ErrMin= 1.63D-04
 ErrMax= 1.63D-04  0.00D+00 EMaxC= 1.00D-01 BMatC= 7.68D-06 BMatP= 7.73D-05
 IDIUse=3 WtCom= 9.98D-01 WtEn= 1.63D-03
 Coeff-Com:  0.432D-02-0.611D-02 0.104D-01 0.222D-01 0.731D-01 0.326D+00
 Coeff-Com:  0.570D+00
 Coeff-En:   0.000D+00 0.000D+00 0.000D+00 0.000D+00 0.000D+00 0.724D-01
 Coeff-En:   0.928D+00
 Coeff:      0.431D-02-0.610D-02 0.104D-01 0.222D-01 0.729D-01 0.326D+00
 Coeff:      0.571D+00
 Gap=     0.146 Goal=   None    Shift=    0.000
 RMSDP=1.03D-05 MaxDP=1.18D-03 DE=-7.64D-05 OVMax= 1.23D-03

 Cycle   8  Pass 0  IDiag  1:
 RMSU=  6.84D-06    CP:  9.71D-01  1.70D+00  9.10D-01  5.13D-01  5.33D-01
                    CP:  6.92D-01  6.90D-01
 E= -1725.43008249714     Delta-E=       -0.000007698335 Rises=F Damp=F
 DIIS: error= 5.27D-05 at cycle   8 NSaved=   8.
 NSaved= 8 IEnMin= 8 EnMin= -1725.43008249714     IErMin= 8 ErrMin= 5.27D-05
 ErrMax= 5.27D-05  0.00D+00 EMaxC= 1.00D-01 BMatC= 1.02D-06 BMatP= 7.68D-06
 IDIUse=1 WtCom= 1.00D+00 WtEn= 0.00D+00
 Coeff-Com:  0.893D-03-0.148D-02 0.746D-03 0.418D-02 0.278D-01 0.157D+00
 Coeff-Com:  0.355D+00 0.456D+00
 Coeff:      0.893D-03-0.148D-02 0.746D-03 0.418D-02 0.278D-01 0.157D+00
 Coeff:      0.355D+00 0.456D+00
 Gap=     0.146 Goal=   None    Shift=    0.000
 RMSDP=3.57D-06 MaxDP=3.39D-04 DE=-7.70D-06 OVMax= 4.45D-04

 Initial convergence to 1.0D-05 achieved.  Increase integral accuracy.
 Cycle   9  Pass 1  IDiag  1:
 E= -1725.42992847839     Delta-E=        0.000154018755 Rises=F Damp=F
 DIIS: error= 3.85D-04 at cycle   1 NSaved=   1.
 NSaved= 1 IEnMin= 1 EnMin= -1725.42992847839     IErMin= 1 ErrMin= 3.85D-04
 ErrMax= 3.85D-04  0.00D+00 EMaxC= 1.00D-01 BMatC= 1.22D-05 BMatP= 1.22D-05
 IDIUse=3 WtCom= 9.96D-01 WtEn= 3.85D-03
 Coeff-Com:  0.100D+01
 Coeff-En:   0.100D+01
 Coeff:      0.100D+01
 Gap=     0.146 Goal=   None    Shift=    0.000
 RMSDP=3.57D-06 MaxDP=3.39D-04 DE= 1.54D-04 OVMax= 7.33D-04

 Cycle  10  Pass 1  IDiag  1:
 RMSU=  1.24D-04    CP:  1.00D+00
 E= -1725.42994666935     Delta-E=       -0.000018190966 Rises=F Damp=F
 DIIS: error= 3.50D-05 at cycle   2 NSaved=   2.
 NSaved= 2 IEnMin= 2 EnMin= -1725.42994666935     IErMin= 2 ErrMin= 3.50D-05
 ErrMax= 3.50D-05  0.00D+00 EMaxC= 1.00D-01 BMatC= 2.02D-07 BMatP= 1.22D-05
 IDIUse=1 WtCom= 1.00D+00 WtEn= 0.00D+00
 Coeff-Com:  0.126D-01 0.987D+00
 Coeff:      0.126D-01 0.987D+00
 Gap=     0.146 Goal=   None    Shift=    0.000
 RMSDP=4.59D-06 MaxDP=4.02D-04 DE=-1.82D-05 OVMax= 6.67D-04

 Cycle  11  Pass 1  IDiag  1:
 RMSU=  4.11D-06    CP:  1.00D+00  1.02D+00
 E= -1725.42994589501     Delta-E=        0.000000774344 Rises=F Damp=F
 DIIS: error= 7.72D-05 at cycle   3 NSaved=   3.
 NSaved= 3 IEnMin= 2 EnMin= -1725.42994666935     IErMin= 2 ErrMin= 3.50D-05
 ErrMax= 7.72D-05  0.00D+00 EMaxC= 1.00D-01 BMatC= 8.46D-07 BMatP= 2.02D-07
 IDIUse=1 WtCom= 1.00D+00 WtEn= 0.00D+00
 Coeff-Com: -0.772D-02 0.678D+00 0.330D+00
 Coeff:     -0.772D-02 0.678D+00 0.330D+00
 Gap=     0.146 Goal=   None    Shift=    0.000
 RMSDP=2.80D-06 MaxDP=2.79D-04 DE= 7.74D-07 OVMax= 4.76D-04

 Cycle  12  Pass 1  IDiag  1:
 RMSU=  5.54D-07    CP:  1.00D+00  1.02D+00  3.32D-01
 E= -1725.42994690754     Delta-E=       -0.000001012532 Rises=F Damp=F
 DIIS: error= 3.58D-06 at cycle   4 NSaved=   4.
 NSaved= 4 IEnMin= 4 EnMin= -1725.42994690754     IErMin= 4 ErrMin= 3.58D-06
 ErrMax= 3.58D-06  0.00D+00 EMaxC= 1.00D-01 BMatC= 3.71D-09 BMatP= 2.02D-07
 IDIUse=1 WtCom= 1.00D+00 WtEn= 0.00D+00
 Coeff-Com: -0.450D-02 0.373D+00 0.187D+00 0.444D+00
 Coeff:     -0.450D-02 0.373D+00 0.187D+00 0.444D+00
 Gap=     0.146 Goal=   None    Shift=    0.000
 RMSDP=2.20D-07 MaxDP=1.36D-05 DE=-1.01D-06 OVMax= 2.39D-05

 Cycle  13  Pass 1  IDiag  1:
 RMSU=  1.84D-07    CP:  1.00D+00  1.02D+00  3.45D-01  8.07D-01
 E= -1725.42994691156     Delta-E=       -0.000000004015 Rises=F Damp=F
 DIIS: error= 5.60D-07 at cycle   5 NSaved=   5.
 NSaved= 5 IEnMin= 5 EnMin= -1725.42994691156     IErMin= 5 ErrMin= 5.60D-07
 ErrMax= 5.60D-07  0.00D+00 EMaxC= 1.00D-01 BMatC= 1.47D-10 BMatP= 3.71D-09
 IDIUse=1 WtCom= 1.00D+00 WtEn= 0.00D+00
 Coeff-Com: -0.128D-02 0.102D+00 0.527D-01 0.202D+00 0.644D+00
 Coeff:     -0.128D-02 0.102D+00 0.527D-01 0.202D+00 0.644D+00
 Gap=     0.146 Goal=   None    Shift=    0.000
 RMSDP=5.96D-08 MaxDP=3.23D-06 DE=-4.02D-09 OVMax= 5.12D-06

 Cycle  14  Pass 1  IDiag  1:
 RMSU=  4.98D-08    CP:  1.00D+00  1.02D+00  3.45D-01  8.26D-01  8.35D-01
 E= -1725.42994691165     Delta-E=       -0.000000000095 Rises=F Damp=F
 DIIS: error= 4.54D-07 at cycle   6 NSaved=   6.
 NSaved= 6 IEnMin= 6 EnMin= -1725.42994691165     IErMin= 6 ErrMin= 4.54D-07
 ErrMax= 4.54D-07  0.00D+00 EMaxC= 1.00D-01 BMatC= 4.49D-11 BMatP= 1.47D-10
 IDIUse=1 WtCom= 1.00D+00 WtEn= 0.00D+00
 Coeff-Com: -0.187D-03 0.132D-01 0.733D-02 0.650D-01 0.403D+00 0.512D+00
 Coeff:     -0.187D-03 0.132D-01 0.733D-02 0.650D-01 0.403D+00 0.512D+00
 Gap=     0.146 Goal=   None    Shift=    0.000
 RMSDP=2.59D-08 MaxDP=1.83D-06 DE=-9.55D-11 OVMax= 3.14D-06

 Cycle  15  Pass 1  IDiag  1:
 RMSU=  1.73D-08    CP:  1.00D+00  1.02D+00  3.45D-01  8.30D-01  8.89D-01
                    CP:  6.80D-01
[...]
    72  H    0.231887
    73  H    0.222096
    74  C   -0.966715
    75  H    0.222119
    76  H    0.231450
    77  H    0.231561
    78  Sn   1.199332
    79  C   -0.968010
    80  H    0.231474
    81  H    0.222214
    82  H    0.231740
    83  C   -0.966389
    84  H    0.222000
    85  H    0.232141
    86  H    0.231603
    87  C   -0.986170
    88  H    0.230785
    89  H    0.231293
    90  H    0.229109
 Sum of Mulliken charges =  -0.00000
 Mulliken charges with hydrogens summed into heavy atoms:
               1
     1  C   -0.251913
     2  C    0.352237
     3  C    0.041977
     4  C   -0.569939
     5  S    0.221486
     6  O   -0.323465
     8  C   -0.244792
     9  C    0.360952
    10  C    0.040979
    11  C   -0.569712
    12  S    0.223172
    13  O   -0.322509
    15  C    0.174862
    18  C    0.166011
    21  O   -0.335999
    22  C    0.171857
    25  C    0.169005
    28  O   -0.339187
    29  C    0.180740
    32  C    0.153110
    35  O   -0.325166
    36  C    0.164757
    40  C    0.174670
    43  C    0.166034
    46  O   -0.336000
    47  C    0.171891
    50  C    0.168970
    53  O   -0.339179
    54  C    0.180727
    57  C    0.153104
    60  O   -0.325170
    61  C    0.164742
    65  Sn   1.198746
    66  C   -0.295048
    70  C   -0.281490
    74  C   -0.281584
    78  Sn   1.199332
    79  C   -0.282581
    83  C   -0.280645
    87  C   -0.294983
 Electronic spatial extent (au):  <R**2>=          67146.3076
 Charge=              0.0000 electrons
 Dipole moment (field-independent basis, Debye):
    X=              0.0346    Y=              0.0201    Z=              0.7897  Tot=              0.7907
 Quadrupole moment (field-independent basis, Debye-Ang):
   XX=           -233.5356   YY=           -251.0126   ZZ=           -276.7218
   XY=             27.2281   XZ=             -0.1587   YZ=              0.0579
 Traceless Quadrupole moment (field-independent basis, Debye-Ang):
   XX=             20.2211   YY=              2.7440   ZZ=            -22.9651
   XY=             27.2281   XZ=             -0.1587   YZ=              0.0579
 Octapole moment (field-independent basis, Debye-Ang**2):
  XXX=             -2.6433  YYY=             -3.1083  ZZZ=            -90.5689  XYY=              3.5350
  XXY=              1.4193  XXZ=            116.1819  XZZ=             -0.2051  YZZ=             -0.3921
  YYZ=            -74.2133  XYZ=             75.2989
 Hexadecapole moment (field-independent basis, Debye-Ang**3):
 XXXX=         -57123.8970 YYYY=         -16510.4920 ZZZZ=          -3816.9996 XXXY=           6385.3210
 XXXZ=            -50.9307 YYYX=            455.2409 YYYZ=             -2.9835 ZZZX=             -6.6280
 ZZZY=             -0.3660 XXYY=         -14766.6679 XXZZ=         -11548.5044 YYZZ=          -3611.1768
 XXYZ=              4.7831 YYXZ=              7.4646 ZZXY=            273.0690
 N-N= 3.795430584416D+03 E-N=-1.160376792453D+04  KE= 1.698582259943D+03
 No NMR shielding tensors so no spin-rotation constants.
 Leave Link  601 at Tue Mar  3 13:16:04 2020, MaxMem=  6710886400 cpu:               2.7 elap:               0.4
 (Enter /apps/gaussian/g16-a03/l602.exe)
 FitSet:  NAtFit=    90 NAtPot=    90 NAtFrz=     0 MDM=    94 TotChg=   0.00000
 UFF atomic radii scaled by 1 / 1.20 used.

 **********************************************************************

            Electrostatic Properties Using The SCF Density

 **********************************************************************

       Atomic Center    1 is at   0.128439 -0.720020 -0.574914
       Atomic Center    2 is at   1.350496 -1.357523 -0.381621
       Atomic Center    3 is at   1.316114 -2.792693 -0.503836
       Atomic Center    4 is at   0.075063 -3.320100 -0.819487
       Atomic Center    5 is at  -1.132877 -1.976985 -0.975133
       Atomic Center    6 is at   2.490317 -0.600247 -0.107165
       Atomic Center    7 is at   2.192893 -3.413816 -0.355710
       Atomic Center    8 is at  -0.155687  0.693674 -0.630972
       Atomic Center    9 is at  -1.366383  1.343392 -0.409532
       Atomic Center   10 is at  -1.318656  2.778255 -0.527123
       Atomic Center   11 is at  -0.069699  3.294731 -0.830324
       Atomic Center   12 is at   1.128552  1.941524 -0.975928
       Atomic Center   13 is at  -2.507665  0.594586 -0.118936
       Atomic Center   14 is at  -2.190353  3.407276 -0.382262
       Atomic Center   15 is at   3.743319 -1.305695  0.153490
       Atomic Center   16 is at   4.049096 -1.886877 -0.727235
       Atomic Center   17 is at   3.633483 -1.980242  1.013596
       Atomic Center   18 is at   4.775680 -0.225819  0.456694
       Atomic Center   19 is at   4.872738  0.459911 -0.399097
       Atomic Center   20 is at   4.471863  0.355877  1.340494
       Atomic Center   21 is at   6.027814 -0.928315  0.702915
       Atomic Center   22 is at   7.143120 -0.042529  1.017103
       Atomic Center   23 is at   7.331635  0.653771  0.185087
       Atomic Center   24 is at   6.928955  0.544043  1.924099
       Atomic Center   25 is at   8.358179 -0.935533  1.242048
       Atomic Center   26 is at   8.571241 -1.522722  0.334799
       Atomic Center   27 is at   8.168595 -1.632560  2.073605
       Atomic Center   28 is at   9.471600 -0.049580  1.555853
       Atomic Center   29 is at  10.724970 -0.753752  1.801531
       Atomic Center   30 is at  11.025065 -1.333562  0.914608
       Atomic Center   31 is at  10.621935 -1.444596  2.652994
       Atomic Center   32 is at  11.772643  0.309345  2.112388
       Atomic Center   33 is at  11.473194  0.889460  3.000148
       Atomic Center   34 is at  11.876231  1.000884  1.260700
       Atomic Center   35 is at  13.020493 -0.402145  2.355927
       Atomic Center   36 is at  14.134497  0.475731  2.670317
       Atomic Center   37 is at  13.939438  1.059618  3.584628
       Atomic Center   38 is at  15.002724 -0.169141  2.830040
       Atomic Center   39 is at  14.343244  1.171500  1.841301
       Atomic Center   40 is at  -3.758111  1.308693  0.129787
       Atomic Center   41 is at  -4.059007  1.880203 -0.758925
       Atomic Center   42 is at  -3.647586  1.993492  0.981691
       Atomic Center   43 is at  -4.795782  0.237301  0.444571
       Atomic Center   44 is at  -4.896871 -0.456963 -0.403825
       Atomic Center   45 is at  -4.494279 -0.336537  1.334288
       Atomic Center   46 is at  -6.044218  0.948646  0.684204
       Atomic Center   47 is at  -7.163703  0.071852  1.008542
       Atomic Center   48 is at  -7.356738 -0.631884  0.183854
       Atomic Center   49 is at  -6.951543 -0.506580  1.921221
       Atomic Center   50 is at  -8.373850  0.973396  1.225776
       Atomic Center   51 is at  -8.585181  1.552191  0.312747
       Atomic Center   52 is at  -8.179478  1.678064  2.049754
       Atomic Center   53 is at  -9.491409  0.096573  1.550362
       Atomic Center   54 is at -10.740684  0.809843  1.790557
       Atomic Center   55 is at -11.039327  1.381624  0.897949
       Atomic Center   56 is at -10.632581  1.509279  2.634346
       Atomic Center   57 is at -11.793301 -0.244371  2.114663
       Atomic Center   58 is at -11.495274 -0.816445  3.008102
       Atomic Center   59 is at -11.902018 -0.944498  1.270665
       Atomic Center   60 is at -13.037009  0.476187  2.352695
       Atomic Center   61 is at -14.154962 -0.392444  2.678530
       Atomic Center   62 is at -13.961252 -0.967429  3.598751
       Atomic Center   63 is at -15.019549  0.258613  2.832815
       Atomic Center   64 is at -14.368823 -1.096034  1.857456
       Atomic Center   65 is at  -0.439404 -5.374159 -1.057010
       Atomic Center   66 is at   1.373882 -6.477541 -0.766757
       Atomic Center   67 is at   1.778380 -6.306013  0.238744
       Atomic Center   68 is at   1.188882 -7.553334 -0.880979
       Atomic Center   69 is at   2.132423 -6.181962 -1.502487
       Atomic Center   70 is at  -1.222738 -5.679905 -3.026630
       Atomic Center   71 is at  -2.127511 -5.078060 -3.179270
       Atomic Center   72 is at  -0.485004 -5.385814 -3.783373
       Atomic Center   73 is at  -1.480175 -6.735463 -3.183437
       Atomic Center   74 is at  -1.911197 -5.909015  0.404378
       Atomic Center   75 is at  -2.181747 -6.969053  0.313647
       Atomic Center   76 is at  -1.528536 -5.732953  1.417260
       Atomic Center   77 is at  -2.819968 -5.308353  0.272613
       Atomic Center   78 is at   0.462129  5.343370 -1.075552
       Atomic Center   79 is at   1.992903  5.847586  0.335106
       Atomic Center   80 is at   2.888099  5.235700  0.166815
       Atomic Center   81 is at   2.274844  6.904391  0.241626
       Atomic Center   82 is at   1.644586  5.669717  1.359989
       Atomic Center   83 is at   1.177919  5.654586 -3.070053
       Atomic Center   84 is at   1.440559  6.708557 -3.229034
       Atomic Center   85 is at   2.070265  5.044442 -3.258508
       Atomic Center   86 is at   0.410690  5.373176 -3.801881
       Atomic Center   87 is at  -1.325083  6.467954 -0.713991
       Atomic Center   88 is at  -2.109809  6.195203 -1.430873
       Atomic Center   89 is at  -1.701533  6.286063  0.300507
       Atomic Center   90 is at  -1.127706  7.542657 -0.817264
    3899 points will be used for fitting atomic charges
 Fitting point charges to electrostatic potential
 Charges from ESP fit, RMS=   0.00211 RRMS=   0.19154:
 ESP charges:
               1
     1  C   -0.162695
     2  C    0.563205
     3  C   -0.315978
     4  C   -0.373539
     5  S   -0.026337
     6  O   -0.653128
     7  H    0.140294
     8  C    0.028563
     9  C    0.452229
    10  C   -0.271655
    11  C   -0.408433
    12  S   -0.059782
    13  O   -0.685345
    14  H    0.131580
    15  C    0.406693
    16  H    0.028136
    17  H    0.015439
    18  C    0.254294
    19  H    0.047096
    20  H    0.033812
    21  O   -0.752290
    22  C    0.349683
    23  H    0.007830
    24  H    0.012801
    25  C    0.393437
    26  H    0.006900
    27  H    0.008536
    28  O   -0.725083
    29  C    0.211954
    30  H    0.034086
    31  H    0.030023
    32  C    0.307180
    33  H    0.036153
    34  H    0.036270
    35  O   -0.524145
    36  C   -0.106054
    37  H    0.084819
    38  H    0.136731
    39  H    0.087290
    40  C    0.603020
    41  H   -0.009964
    42  H   -0.018179
    43  C    0.129890
    44  H    0.061533
    45  H    0.057776
    46  O   -0.768096
    47  C    0.410637
    48  H    0.000502
    49  H    0.004963
    50  C    0.364226
    51  H    0.011509
    52  H    0.011667
    53  O   -0.726583
    54  C    0.266046
    55  H    0.024241
    56  H    0.025653
    57  C    0.200150
    58  H    0.061813
    59  H    0.060850
    60  O   -0.500767
    61  C   -0.121643
    62  H    0.091963
    63  H    0.139521
    64  H    0.092418
    65  Sn   1.190427
    66  C   -0.846634
    67  H    0.192190
    68  H    0.184338
    69  H    0.192208
    70  C   -0.777455
    71  H    0.183421
    72  H    0.166630
    73  H    0.162064
    74  C   -0.818050
    75  H    0.178246
    76  H    0.179588
    77  H    0.180025
    78  Sn   1.206541
    79  C   -0.823939
    80  H    0.183527
    81  H    0.177433
    82  H    0.182330
    83  C   -0.793855
    84  H    0.164600
    85  H    0.189720
    86  H    0.171377
    87  C   -0.835174
    88  H    0.188548
    89  H    0.188217
    90  H    0.179958
 Sum of ESP charges =   0.00000
 ESP charges with hydrogens summed into heavy atoms:
               1
     1  C   -0.162695
     2  C    0.563205
     3  C   -0.175684
     4  C   -0.373539
     5  S   -0.026337
     6  O   -0.653128
     8  C    0.028563
     9  C    0.452229
    10  C   -0.140075
    11  C   -0.408433
    12  S   -0.059782
    13  O   -0.685345
    15  C    0.450268
    18  C    0.335202
    21  O   -0.752290
    22  C    0.370315
    25  C    0.408873
    28  O   -0.725083
    29  C    0.276064
    32  C    0.379603
    35  O   -0.524145
    36  C    0.202787
    40  C    0.574877
    43  C    0.249199
    46  O   -0.768096
    47  C    0.416103
    50  C    0.387402
    53  O   -0.726583
    54  C    0.315940
    57  C    0.322813
    60  O   -0.500767
    61  C    0.202259
    65  Sn   1.190427
    66  C   -0.277898
    70  C   -0.265340
    74  C   -0.280191
    78  Sn   1.206541
    79  C   -0.280649
    83  C   -0.268157
    87  C   -0.278451
 Charge=   0.00000 Dipole=     0.0483     0.0220     0.7146 Tot=     0.7166
 -----------------------------------------------------------------

              Electrostatic Properties (Atomic Units)

 -----------------------------------------------------------------
    Center     Electric         -------- Electric Field --------
               Potential          X             Y             Z
 -----------------------------------------------------------------
    1 Atom    -14.731253
    2 Atom    -14.695333
    3 Atom    -14.754501
    4 Atom    -14.758733
    5 Atom     -3.654558
    6 Atom    -22.326333
    7 Atom     -1.087973
    8 Atom    -14.731497
    9 Atom    -14.695594
   10 Atom    -14.754529
   11 Atom    -14.758769
   12 Atom     -3.654271
   13 Atom    -22.326451
   14 Atom     -1.088011
   15 Atom    -14.699281
   16 Atom     -1.100576
   17 Atom     -1.100204
   18 Atom    -14.706291
   19 Atom     -1.107485
   20 Atom     -1.107594
   21 Atom    -22.347466
   22 Atom    -14.708664
   23 Atom     -1.109394
   24 Atom     -1.109429
   25 Atom    -14.709629
   26 Atom     -1.110472
   27 Atom     -1.110471
   28 Atom    -22.350891
   29 Atom    -14.711551
   30 Atom     -1.112301
   31 Atom     -1.112291
   32 Atom    -14.711907
   33 Atom     -1.112414
   34 Atom     -1.112409
   35 Atom    -22.352920
   36 Atom    -14.714975
   37 Atom     -1.105407
   38 Atom     -1.103011
   39 Atom     -1.105403
   40 Atom    -14.699444
   41 Atom     -1.100675
   42 Atom     -1.100391
   43 Atom    -14.706440
   44 Atom     -1.107642
   45 Atom     -1.107736
   46 Atom    -22.347583
   47 Atom    -14.708767
   48 Atom     -1.109501
   49 Atom     -1.109529
   50 Atom    -14.709709
   51 Atom     -1.110549
   52 Atom     -1.110549
   53 Atom    -22.350960
   54 Atom    -14.711608
   55 Atom     -1.112362
   56 Atom     -1.112345
   57 Atom    -14.711958
   58 Atom     -1.112463
   59 Atom     -1.112459
   60 Atom    -22.352964
   61 Atom    -14.715014
   62 Atom     -1.105446
   63 Atom     -1.103049
   64 Atom     -1.105443
   65 Atom     -1.623426
   66 Atom    -14.784646
   67 Atom     -1.107726
   68 Atom     -1.107079
   69 Atom     -1.107761
   70 Atom    -14.788715
   71 Atom     -1.111758
   72 Atom     -1.112651
   73 Atom     -1.111029
   74 Atom    -14.788447
   75 Atom     -1.110795
   76 Atom     -1.112418
   77 Atom     -1.111557
   78 Atom     -1.623408
   79 Atom    -14.788305
   80 Atom     -1.111343
   81 Atom     -1.110678
   82 Atom     -1.112307
   83 Atom    -14.788775
   84 Atom     -1.111069
   85 Atom     -1.111865
   86 Atom     -1.112681
   87 Atom    -14.784638
   88 Atom     -1.107679
   89 Atom     -1.107800
   90 Atom     -1.107070
 -----------------------------------------------------------------
 Leave Link  602 at Tue Mar  3 13:16:04 2020, MaxMem=  6710886400 cpu:               2.8 elap:               0.4
 (Enter /apps/gaussian/g16-a03/l9999.exe)
 1\1\GINC-CX1-141-15-4\FOpt\RB3LYP\LANL2DZ\C28H50O8S2Sn2\NS5018\03-Mar-
 2020\0\\#p opt=modredundant pop=MKUFF b3lyp/lanl2dz\\O3G_1m_0sc_Sn_pop
 .gjf\\0,1\C,0.143959545,0.6870710673,-0.1833406141\C,1.3828626257,1.29
 82675601,-0.3529119947\C,1.3790810886,2.7327578251,-0.2185367311\C,0.1
 456733208,3.2855194502,0.0833918616\S,-1.0944919206,1.9689170755,0.209
 2924301\O,2.509268904,0.5176540058,-0.6171786423\H,2.2717864124,3.3350
 391214,-0.3481945723\C,-0.1728343083,-0.7202294494,-0.1439854685\C,-1.
 3944459673,-1.3403690028,-0.3890264678\C,-1.3809087448,-2.7768935738,-
 0.2834310924\C,-0.1486165932,-3.324169677,0.033614366\S,1.0775807102,-
 1.9998192844,0.208864612\O,-2.5140438305,-0.5633855449,-0.6898241213\H
 ,-2.2643250306,-3.3846951372,-0.4467118026\C,3.7816483339,1.1966456305
 ,-0.8530442764\H,4.0872539317,1.7632220273,0.0372059914\H,3.6999673744
 ,1.8808025817,-1.7086834438\C,4.7937774261,0.0962129197,-1.1504943203\
 H,4.8624960055,-0.5987965783,-0.2994584835\H,4.4901653461,-0.470894955
 ,-2.0437946593\O,6.0650064782,0.7721511046,-1.3719676528\C,7.164598471
 4,-0.1360401883,-1.6774588293\H,7.3248582514,-0.8434924301,-0.84893504
 13\H,6.9508429089,-0.7098623535,-2.5926702791\C,8.4027509388,0.7310109
 99,-1.8765218982\H,8.6154134861,1.3054722502,-0.9610688989\H,8.2414320
 924,1.4392102262,-2.704595374\O,9.5004489821,-0.1773078303,-2.18166017
 78\C,10.7729433433,0.5002729304,-2.4025566992\H,11.0727453828,1.065553
 2028,-1.5062049039\H,10.6983005611,1.200493685,-3.2493086469\C,11.8008
 723907,-0.5836683605,-2.7072835752\H,11.5017214606,-1.1492624215,-3.60
 44648119\H,11.8760494012,-1.2845993581,-1.8603045553\O,13.0679814956,0
 .1013347218,-2.9260590645\C,14.1664544614,-0.7989173308,-3.2317014544\
 H,13.9719670736,-1.3704270822,-4.1539201941\H,15.0513200193,-0.1726012
 876,-3.3728710399\H,14.3469955479,-1.5062723033,-2.405874337\C,-3.7764
 367863,-1.2467610059,-0.9632993\H,-4.1034381096,-1.818823122,-0.084217
 8509\H,-3.6686648976,-1.9266249798,-1.8194973534\C,-4.7848123978,-0.14
 94335891,-1.2838996705\H,-4.8828848447,0.5397088502,-0.430985943\H,-4.
 4571360302,0.4249503237,-2.1639569235\O,-6.0452702269,-0.8301710129,-1
 .5482319821\C,-7.1396822033,0.074554487,-1.8813138615\H,-7.3290976739,
 0.7754570824,-1.0533791618\H,-6.9008680874,0.6557566677,-2.7856094345\
 C,-8.3664963332,-0.7973854395,-2.1243659141\H,-8.6044943019,-1.3789728
 427,-1.219711781\H,-8.1757759446,-1.4992557389,-2.9515792884\O,-9.4589
 785875,0.1073271309,-2.4576673159\C,-10.7203098909,-0.5753095186,-2.72
 25914833\H,-11.0451246257,-1.1477277216,-1.8395826468\H,-10.6154121253
 ,-1.2698209694,-3.5708406958\C,-11.7438748373,0.5052627674,-3.05288427
 94\H,-11.4196571374,1.0779944872,-3.9367299093\H,-11.8493746413,1.2004
 766329,-2.20442908\O,-12.9998382912,-0.1848060719,-3.3156281602\C,-14.
 092880672,0.7117372218,-3.65025573\H,-13.8724757247,1.2899773734,-4.56
 23948213\H,-14.9695462958,0.0818248665,-3.8230484796\H,-14.3030642343,
 1.4129969761,-2.8262441413\Sn,-0.3257626769,5.3486417677,0.3314342114\
 C,1.5161262809,6.4129737536,0.0777723819\H,1.9316572116,6.2408566204,-
 0.9231191782\H,1.3537852726,7.4916816645,0.1987532546\H,2.2566966323,6
 .09399355,0.8219889305\C,-1.1313934805,5.6553460333,2.2918906292\H,-2.
 0517150492,5.0729342913,2.4258180971\H,-0.4119046165,5.338147673,3.056
 8226703\H,-1.3672407791,6.7151082829,2.4542007389\C,-1.7630524216,5.92
 9201283,-1.1467570964\H,-2.0109169567,6.9943025437,-1.0506669202\H,-1.
 3693428287,5.7531101686,-2.1553909238\H,-2.6870304381,5.3482405325,-1.
 0337489679\Sn,0.333069047,-5.3863719891,0.2685557147\C,1.8730129067,-5
 .9132206033,-1.123731739\H,2.7791818781,-5.3232828065,-0.9368284461\H,
 2.1295787724,-6.9769150584,-1.0354411211\H,1.5441868187,-5.7187770161,
 -2.1520373702\C,1.0117021243,-5.7307163692,2.2705858817\H,1.2480580956
 ,-6.791695352,2.4241078378\H,1.9146814011,-5.142625812,2.4775921426\H,
 0.2401542429,-5.4381825955,2.9934568208\C,-1.4734757322,-6.4669500322,
 -0.1293020319\H,-2.262486515,-6.1825475781,0.5782894845\H,-1.830489137
 6,-6.267934302,-1.1476043942\H,-1.3019934771,-7.5466988506,-0.03262742
 65\\Version=ES64L-G16RevA.03\State=1-A\HF=-1725.4807213\RMSD=5.624e-09
 \RMSF=6.151e-04\Dipole=0.0180614,-0.0055776,-0.310514\Quadrupole=14.10
 22944,2.9642497,-17.0665441,-20.5187532,0.4113121,-0.0965406\PG=C01 [X
 (C28H50O8S2Sn2)]\\@


 If fifty million people say a stupid thing,
 it is still a stupid thing.
                   -- Anatole France
 Job cpu time:       0 days 10 hours 58 minutes 21.7 seconds.
 Elapsed time:       0 days  1 hours 22 minutes 32.7 seconds.
 File lengths (MBytes):  RWF=    138 Int=      0 D2E=      0 Chk=     21 Scr=      1
 Normal termination of Gaussian 16 at Tue Mar  3 13:16:05 2020.
