 Entering Gaussian System, Link 0=g16
 Input=GS_40.gjf
 Output=GS_40.log
 Initial command:
 /apps/gaussian/g16-a03/l1.exe "/tmp/pbs.1165169[4].pbs/Gau-6525.inp" -scrdir="/tmp/pbs.1165169[4].pbs/"
 Entering Link 1 = /apps/gaussian/g16-a03/l1.exe PID=      6526.
  
 Copyright (c) 1988,1990,1992,1993,1995,1998,2003,2009,2016,
            Gaussian, Inc.  All Rights Reserved.
  
 This is part of the Gaussian(R) 16 program.  It is based on
 the Gaussian(R) 09 system (copyright 2009, Gaussian, Inc.),
 the Gaussian(R) 03 system (copyright 2003, Gaussian, Inc.),
 the Gaussian(R) 98 system (copyright 1998, Gaussian, Inc.),
 the Gaussian(R) 94 system (copyright 1995, Gaussian, Inc.),
 the Gaussian 92(TM) system (copyright 1992, Gaussian, Inc.),
 the Gaussian 90(TM) system (copyright 1990, Gaussian, Inc.),
 the Gaussian 88(TM) system (copyright 1988, Gaussian, Inc.),
 the Gaussian 86(TM) system (copyright 1986, Carnegie Mellon
 University), and the Gaussian 82(TM) system (copyright 1983,
 Carnegie Mellon University). Gaussian is a federally registered
 trademark of Gaussian, Inc.
  
 This software contains proprietary and confidential information,
 including trade secrets, belonging to Gaussian, Inc.
  
 This software is provided under written license and may be
 used, copied, transmitted, or stored only in accord with that
 written license.
  
 The following legend is applicable only to US Government
 contracts under FAR:
  
                    RESTRICTED RIGHTS LEGEND
  
 Use, reproduction and disclosure by the US Government is
 subject to restrictions as set forth in subparagraphs (a)
 and (c) of the Commercial Computer Software - Restricted
 Rights clause in FAR 52.227-19.
  
 Gaussian, Inc.
 340 Quinnipiac St., Bldg. 40, Wallingford CT 06492
  
  
 ---------------------------------------------------------------
 Warning -- This program may not be used in any manner that
 competes with the business of Gaussian, Inc. or will provide
 assistance to any competitor of Gaussian, Inc.  The licensee
 of this program is prohibited from giving any competitor of
 Gaussian, Inc. access to this program.  By using this program,
 the user acknowledges that Gaussian, Inc. is engaged in the
 business of creating and licensing software in the field of
 computational chemistry and represents and warrants to the
 licensee that it is not a competitor of Gaussian, Inc. and that
 it will not use this program in any manner prohibited above.
 ---------------------------------------------------------------
  

 Cite this work as:
 Gaussian 16, Revision A.03,
 M. J. Frisch, G. W. Trucks, H. B. Schlegel, G. E. Scuseria, 
 M. A. Robb, J. R. Cheeseman, G. Scalmani, V. Barone, 
 G. A. Petersson, H. Nakatsuji, X. Li, M. Caricato, A. V. Marenich, 
 J. Bloino, B. G. Janesko, R. Gomperts, B. Mennucci, H. P. Hratchian, 
 J. V. Ortiz, A. F. Izmaylov, J. L. Sonnenberg, D. Williams-Young, 
 F. Ding, F. Lipparini, F. Egidi, J. Goings, B. Peng, A. Petrone, 
 T. Henderson, D. Ranasinghe, V. G. Zakrzewski, J. Gao, N. Rega, 
 G. Zheng, W. Liang, M. Hada, M. Ehara, K. Toyota, R. Fukuda, 
 J. Hasegawa, M. Ishida, T. Nakajima, Y. Honda, O. Kitao, H. Nakai, 
 T. Vreven, K. Throssell, J. A. Montgomery, Jr., J. E. Peralta, 
 F. Ogliaro, M. J. Bearpark, J. J. Heyd, E. N. Brothers, K. N. Kudin, 
 V. N. Staroverov, T. A. Keith, R. Kobayashi, J. Normand, 
 K. Raghavachari, A. P. Rendell, J. C. Burant, S. S. Iyengar, 
 J. Tomasi, M. Cossi, J. M. Millam, M. Klene, C. Adamo, R. Cammi, 
 J. W. Ochterski, R. L. Martin, K. Morokuma, O. Farkas, 
 J. B. Foresman, and D. J. Fox, Gaussian, Inc., Wallingford CT, 2016.
 
 ******************************************
 Gaussian 16:  ES64L-G16RevA.03 25-Dec-2016
                 3-Mar-2020 
 ******************************************
 %mem=50GB
 %nprocshared=8
 Will use up to    8 processors via shared memory.
 -------------------------------------------
 #p opt=modredundant pop=MKUFF b3lyp/lanl2dz
 -------------------------------------------
 1/18=120,19=15,26=3,38=1/1,3;
 2/9=110,12=2,17=6,18=5,40=1/2;
 3/5=6,6=3,11=2,25=1,30=1,71=1,74=-5/1,2,3;
 4//1;
 5/5=2,38=5/2;
 6/7=2,8=2,9=2,10=2,15=8,20=4,28=1/1,2;
 7//1,2,3,16;
 1/18=20,19=15,26=3/3(2);
 2/9=110/2;
 99//99;
 2/9=110/2;
 3/5=6,6=3,11=2,25=1,30=1,71=1,74=-5/1,2,3;
 4/5=5,16=3,69=1/1;
 5/5=2,38=5/2;
 7//1,2,3,16;
 1/18=20,19=15,26=3/3(-5);
 2/9=110/2;
 6/7=2,8=2,9=2,10=2,15=8,19=2,20=4,28=1/1,2;
 99/9=1/99;
 Leave Link    1 at Tue Mar  3 11:49:19 2020, MaxMem=  6710886400 cpu:               6.2 elap:               0.9
 (Enter /apps/gaussian/g16-a03/l101.exe)
 ---------------------
 O3G_1m_0sc_Sn_pop.gjf
 ---------------------
 Symbolic Z-matrix:
 Charge =  0 Multiplicity = 1
 C                     0.152     0.706    -0.001 
 C                     1.33372   1.32684  -0.37392 
 C                     1.3118    2.74552  -0.25744 
 C                     0.11336   3.20439   0.20414 
 S                    -1.0087    1.9262    0.50547 
 O                     2.38464   0.57179  -0.80463 
 H                     2.14271   3.39058  -0.50261 
 C                    -0.152    -0.706    -0.001 
 C                    -1.33372  -1.32684  -0.37392 
 C                    -1.31274  -2.74553  -0.25777 
 C                    -0.11336  -3.20439   0.20414 
 S                     1.00835  -1.92713   0.50648 
 O                    -2.38431  -0.57186  -0.80557 
 H                    -2.14238  -3.39165  -0.50347 
 C                     3.58486   1.24073  -1.18044 
 H                     3.99485   1.80536  -0.33595 
 H                     3.39936   1.93357  -2.00954 
 C                     4.5722    0.17281  -1.61357 
 H                     4.75318  -0.52691  -0.78551 
 H                     4.15869  -0.39892  -2.45628 
 O                     5.76206   0.84162  -1.9857 
 C                     6.7895   -0.03233  -2.41823 
 H                     7.06271  -0.74081  -1.62366 
 H                     6.46822  -0.61282  -3.29444 
 C                     7.99293   0.81914  -2.7812 
 H                     8.31234   1.4006   -1.90426 
 H                     7.71912   1.52854  -3.57443 
 O                     9.01754  -0.05484  -3.21273 
 C                     10.2096   0.61292  -3.58467 
 H                     10.61902   1.18568  -2.74148 
 H                     10.02581   1.31361  -4.41165 
 C                     11.2103  -0.44186  -4.02154 
 H                     10.79771  -1.01558  -4.86473 
 H                     11.39219  -1.14357  -3.19396 
 O                     12.39826   0.22692  -4.393 
 C                     13.41525  -0.65414  -4.82236 
 H                     13.10526  -1.23126  -5.70551 
 H                     14.28118  -0.04544  -5.08384 
 H                     13.70175  -1.35969  -4.0291 
 C                    -3.58454  -1.2418   -1.18131 
 H                    -3.99485  -1.80536  -0.33595 
 H                    -3.39936  -1.93357  -2.00954 
 C                    -4.5722   -0.17281  -1.61357 
 H                    -4.7532    0.52592  -0.78544 
 H                    -4.15837   0.39785  -2.45715 
 O                    -5.76206  -0.84162  -1.9857 
 C                    -6.7895    0.03233  -2.41823 
 H                    -7.06269   0.74181  -1.62374 
 H                    -6.46822   0.61282  -3.29444 
 C                    -7.99293  -0.81914  -2.7812 
 H                    -8.31328  -1.40062  -1.90459 
 H                    -7.71912  -1.52854  -3.57443 
 O                    -9.01753   0.05584  -3.2128 
 C                    -10.20959  -0.61193  -3.58474 
 H                    -10.61934  -1.18461  -2.74061 
 H                    -10.02579  -1.31261  -4.41172 
 C                    -11.20934   0.44287  -4.02127 
 H                    -10.79769   1.01657  -4.86481 
 H                    -11.39124   1.14458  -3.1937 
 O                    -12.39825  -0.22593  -4.39307 
 C                    -13.41524   0.65514  -4.82243 
 H                    -13.10524   1.23226  -5.70559 
 H                    -14.2815   0.04651  -5.08297 
 H                    -13.7008   1.3607   -4.02884 
 Sn                   -0.13895   5.31398   0.45659 
 C                     1.14756   6.21566   1.95363 
 H                     2.12684   6.35425   1.54556 
 H                     0.74598   7.16422   2.24474 
 H                     1.20445   5.57474   2.80799 
 C                    -2.18388   5.28705   1.18215 
 H                    -2.8191    4.84495   0.44315 
 H                    -2.23469   4.71513   2.08544 
 H                    -2.50711   6.28878   1.37603 
 C                    -0.03741   6.47078  -1.37664 
 H                    -0.43916   7.44799  -1.20459 
 H                     0.98272   6.55487  -1.68955 
 H                    -0.60498   5.9814   -2.13908 
 Sn                    0.25983  -5.29145   0.49788 
 C                     2.04373  -6.19847  -0.34202 
 H                     2.87963  -5.99749   0.29438 
 H                     1.9021   -7.25622  -0.42099 
 H                     2.22807  -5.78959  -1.3134 
 C                     0.65338  -5.73932   2.58454 
 H                     0.57596  -6.79475   2.7432 
 H                     1.63876  -5.41129   2.83979 
 H                    -0.06159  -5.23285   3.19909 
 C                    -1.41296  -6.58179   0.00258 
 H                    -2.25981  -6.31179   0.59683 
 H                    -1.65349  -6.47116  -1.03434 
 H                    -1.14818  -7.59956   0.2003 
 
 The following ModRedundant input section has been read:
 D       5       1       8       9 F                                           
 
 ITRead=  0  0  0  0  0  0  0  0  0  0  0  0  0  0  0  0  0  0  0  0
 ITRead=  0  0  0  0  0  0  0  0  0  0  0  0  0  0  0  0  0  0  0  0
 ITRead=  0  0  0  0  0  0  0  0  0  0  0  0  0  0  0  0  0  0  0  0
 ITRead=  0  0  0  0  0  0  0  0  0  0  0  0  0  0  0  0  0  0  0  0
 ITRead=  0  0  0  0  0  0  0  0  0  0
 MicOpt= -1 -1 -1 -1 -1 -1 -1 -1 -1 -1 -1 -1 -1 -1 -1 -1 -1 -1 -1 -1
 MicOpt= -1 -1 -1 -1 -1 -1 -1 -1 -1 -1 -1 -1 -1 -1 -1 -1 -1 -1 -1 -1
 MicOpt= -1 -1 -1 -1 -1 -1 -1 -1 -1 -1 -1 -1 -1 -1 -1 -1 -1 -1 -1 -1
 MicOpt= -1 -1 -1 -1 -1 -1 -1 -1 -1 -1 -1 -1 -1 -1 -1 -1 -1 -1 -1 -1
 MicOpt= -1 -1 -1 -1 -1 -1 -1 -1 -1 -1
 NAtoms=     90 NQM=       90 NQMF=       0 NMMI=      0 NMMIF=      0
                NMic=       0 NMicF=      0.
                    Isotopes and Nuclear Properties:
 (Nuclear quadrupole moments (NQMom) in fm**2, nuclear magnetic moments (NMagM)
  in nuclear magnetons)

  Atom         1           2           3           4           5           6           7           8           9          10
 IAtWgt=          12          12          12          12          32          16           1          12          12          12
 AtmWgt=  12.0000000  12.0000000  12.0000000  12.0000000  31.9720718  15.9949146   1.0078250  12.0000000  12.0000000  12.0000000
 NucSpn=           0           0           0           0           0           0           1           0           0           0
 AtZEff=  -0.0000000  -0.0000000  -0.0000000  -0.0000000  -0.0000000  -0.0000000  -0.0000000  -0.0000000  -0.0000000  -0.0000000
 NQMom=    0.0000000   0.0000000   0.0000000   0.0000000   0.0000000   0.0000000   0.0000000   0.0000000   0.0000000   0.0000000
 NMagM=    0.0000000   0.0000000   0.0000000   0.0000000   0.0000000   0.0000000   2.7928460   0.0000000   0.0000000   0.0000000
 AtZNuc=   6.0000000   6.0000000   6.0000000   6.0000000  16.0000000   8.0000000   1.0000000   6.0000000   6.0000000   6.0000000

  Atom        11          12          13          14          15          16          17          18          19          20
 IAtWgt=          12          32          16           1          12           1           1          12           1           1
 AtmWgt=  12.0000000  31.9720718  15.9949146   1.0078250  12.0000000   1.0078250   1.0078250  12.0000000   1.0078250   1.0078250
 NucSpn=           0           0           0           1           0           1           1           0           1           1
 AtZEff=  -0.0000000  -0.0000000  -0.0000000  -0.0000000  -0.0000000  -0.0000000  -0.0000000  -0.0000000  -0.0000000  -0.0000000
 NQMom=    0.0000000   0.0000000   0.0000000   0.0000000   0.0000000   0.0000000   0.0000000   0.0000000   0.0000000   0.0000000
 NMagM=    0.0000000   0.0000000   0.0000000   2.7928460   0.0000000   2.7928460   2.7928460   0.0000000   2.7928460   2.7928460
 AtZNuc=   6.0000000  16.0000000   8.0000000   1.0000000   6.0000000   1.0000000   1.0000000   6.0000000   1.0000000   1.0000000

  Atom        21          22          23          24          25          26          27          28          29          30
 IAtWgt=          16          12           1           1          12           1           1          16          12           1
 AtmWgt=  15.9949146  12.0000000   1.0078250   1.0078250  12.0000000   1.0078250   1.0078250  15.9949146  12.0000000   1.0078250
 NucSpn=           0           0           1           1           0           1           1           0           0           1
 AtZEff=  -0.0000000  -0.0000000  -0.0000000  -0.0000000  -0.0000000  -0.0000000  -0.0000000  -0.0000000  -0.0000000  -0.0000000
 NQMom=    0.0000000   0.0000000   0.0000000   0.0000000   0.0000000   0.0000000   0.0000000   0.0000000   0.0000000   0.0000000
 NMagM=    0.0000000   0.0000000   2.7928460   2.7928460   0.0000000   2.7928460   2.7928460   0.0000000   0.0000000   2.7928460
 AtZNuc=   8.0000000   6.0000000   1.0000000   1.0000000   6.0000000   1.0000000   1.0000000   8.0000000   6.0000000   1.0000000

  Atom        31          32          33          34          35          36          37          38          39          40
 IAtWgt=           1          12           1           1          16          12           1           1           1          12
 AtmWgt=   1.0078250  12.0000000   1.0078250   1.0078250  15.9949146  12.0000000   1.0078250   1.0078250   1.0078250  12.0000000
 NucSpn=           1           0           1           1           0           0           1           1           1           0
 AtZEff=  -0.0000000  -0.0000000  -0.0000000  -0.0000000  -0.0000000  -0.0000000  -0.0000000  -0.0000000  -0.0000000  -0.0000000
 NQMom=    0.0000000   0.0000000   0.0000000   0.0000000   0.0000000   0.0000000   0.0000000   0.0000000   0.0000000   0.0000000
 NMagM=    2.7928460   0.0000000   2.7928460   2.7928460   0.0000000   0.0000000   2.7928460   2.7928460   2.7928460   0.0000000
 AtZNuc=   1.0000000   6.0000000   1.0000000   1.0000000   8.0000000   6.0000000   1.0000000   1.0000000   1.0000000   6.0000000

  Atom        41          42          43          44          45          46          47          48          49          50
 IAtWgt=           1           1          12           1           1          16          12           1           1          12
 AtmWgt=   1.0078250   1.0078250  12.0000000   1.0078250   1.0078250  15.9949146  12.0000000   1.0078250   1.0078250  12.0000000
 NucSpn=           1           1           0           1           1           0           0           1           1           0
 AtZEff=  -0.0000000  -0.0000000  -0.0000000  -0.0000000  -0.0000000  -0.0000000  -0.0000000  -0.0000000  -0.0000000  -0.0000000
 NQMom=    0.0000000   0.0000000   0.0000000   0.0000000   0.0000000   0.0000000   0.0000000   0.0000000   0.0000000   0.0000000
 NMagM=    2.7928460   2.7928460   0.0000000   2.7928460   2.7928460   0.0000000   0.0000000   2.7928460   2.7928460   0.0000000
 AtZNuc=   1.0000000   1.0000000   6.0000000   1.0000000   1.0000000   8.0000000   6.0000000   1.0000000   1.0000000   6.0000000

  Atom        51          52          53          54          55          56          57          58          59          60
 IAtWgt=           1           1          16          12           1           1          12           1           1          16
 AtmWgt=   1.0078250   1.0078250  15.9949146  12.0000000   1.0078250   1.0078250  12.0000000   1.0078250   1.0078250  15.9949146
 NucSpn=           1           1           0           0           1           1           0           1           1           0
 AtZEff=  -0.0000000  -0.0000000  -0.0000000  -0.0000000  -0.0000000  -0.0000000  -0.0000000  -0.0000000  -0.0000000  -0.0000000
 NQMom=    0.0000000   0.0000000   0.0000000   0.0000000   0.0000000   0.0000000   0.0000000   0.0000000   0.0000000   0.0000000
 NMagM=    2.7928460   2.7928460   0.0000000   0.0000000   2.7928460   2.7928460   0.0000000   2.7928460   2.7928460   0.0000000
 AtZNuc=   1.0000000   1.0000000   8.0000000   6.0000000   1.0000000   1.0000000   6.0000000   1.0000000   1.0000000   8.0000000

  Atom        61          62          63          64          65          66          67          68          69          70
 IAtWgt=          12           1           1           1         118          12           1           1           1          12
 AtmWgt=  12.0000000   1.0078250   1.0078250   1.0078250 117.9018000  12.0000000   1.0078250   1.0078250   1.0078250  12.0000000
 NucSpn=           0           1           1           1           0           0           1           1           1           0
 AtZEff=  -0.0000000  -0.0000000  -0.0000000  -0.0000000  -0.0000000  -0.0000000  -0.0000000  -0.0000000  -0.0000000  -0.0000000
 NQMom=    0.0000000   0.0000000   0.0000000   0.0000000   0.0000000   0.0000000   0.0000000   0.0000000   0.0000000   0.0000000
 NMagM=    0.0000000   2.7928460   2.7928460   2.7928460   0.0000000   0.0000000   2.7928460   2.7928460   2.7928460   0.0000000
 AtZNuc=   6.0000000   1.0000000   1.0000000   1.0000000  50.0000000   6.0000000   1.0000000   1.0000000   1.0000000   6.0000000

  Atom        71          72          73          74          75          76          77          78          79          80
 IAtWgt=           1           1           1          12           1           1           1         118          12           1
 AtmWgt=   1.0078250   1.0078250   1.0078250  12.0000000   1.0078250   1.0078250   1.0078250 117.9018000  12.0000000   1.0078250
 NucSpn=           1           1           1           0           1           1           1           0           0           1
 AtZEff=  -0.0000000  -0.0000000  -0.0000000  -0.0000000  -0.0000000  -0.0000000  -0.0000000  -0.0000000  -0.0000000  -0.0000000
 NQMom=    0.0000000   0.0000000   0.0000000   0.0000000   0.0000000   0.0000000   0.0000000   0.0000000   0.0000000   0.0000000
 NMagM=    2.7928460   2.7928460   2.7928460   0.0000000   2.7928460   2.7928460   2.7928460   0.0000000   0.0000000   2.7928460
 AtZNuc=   1.0000000   1.0000000   1.0000000   6.0000000   1.0000000   1.0000000   1.0000000  50.0000000   6.0000000   1.0000000

  Atom        81          82          83          84          85          86          87          88          89          90
 IAtWgt=           1           1          12           1           1           1          12           1           1           1
 AtmWgt=   1.0078250   1.0078250  12.0000000   1.0078250   1.0078250   1.0078250  12.0000000   1.0078250   1.0078250   1.0078250
 NucSpn=           1           1           0           1           1           1           0           1           1           1
 AtZEff=  -0.0000000  -0.0000000  -0.0000000  -0.0000000  -0.0000000  -0.0000000  -0.0000000  -0.0000000  -0.0000000  -0.0000000
 NQMom=    0.0000000   0.0000000   0.0000000   0.0000000   0.0000000   0.0000000   0.0000000   0.0000000   0.0000000   0.0000000
 NMagM=    2.7928460   2.7928460   0.0000000   2.7928460   2.7928460   2.7928460   0.0000000   2.7928460   2.7928460   2.7928460
 AtZNuc=   1.0000000   1.0000000   6.0000000   1.0000000   1.0000000   1.0000000   6.0000000   1.0000000   1.0000000   1.0000000
 Leave Link  101 at Tue Mar  3 11:49:19 2020, MaxMem=  6710886400 cpu:               3.7 elap:               0.5
 (Enter /apps/gaussian/g16-a03/l103.exe)

 GradGradGradGradGradGradGradGradGradGradGradGradGradGradGradGradGradGrad
 Berny optimization.
 Initialization pass.
                           ----------------------------
                           !    Initial Parameters    !
                           ! (Angstroms and Degrees)  !
 --------------------------                            --------------------------
 ! Name  Definition              Value          Derivative Info.                !
 --------------------------------------------------------------------------------
 ! R1    R(1,2)                  1.386          estimate D2E/DX2                !
 ! R2    R(1,5)                  1.7586         estimate D2E/DX2                !
 ! R3    R(1,8)                  1.4444         estimate D2E/DX2                !
 ! R4    R(2,3)                  1.4236         estimate D2E/DX2                !
 ! R5    R(2,6)                  1.3638         estimate D2E/DX2                !
 ! R6    R(3,4)                  1.3638         estimate D2E/DX2                !
 ! R7    R(3,7)                  1.0801         estimate D2E/DX2                !
 ! R8    R(4,5)                  1.7273         estimate D2E/DX2                !
 ! R9    R(4,65)                 2.1396         estimate D2E/DX2                !
 ! R10   R(6,15)                 1.4245         estimate D2E/DX2                !
 ! R11   R(8,9)                  1.386          estimate D2E/DX2                !
 ! R12   R(8,12)                 1.7593         estimate D2E/DX2                !
 ! R13   R(9,10)                 1.4236         estimate D2E/DX2                !
 ! R14   R(9,13)                 1.3638         estimate D2E/DX2                !
 ! R15   R(10,11)                1.3647         estimate D2E/DX2                !
 ! R16   R(10,14)                1.0799         estimate D2E/DX2                !
 ! R17   R(11,12)                1.7266         estimate D2E/DX2                !
 ! R18   R(11,78)                2.1404         estimate D2E/DX2                !
 ! R19   R(13,40)                1.425          estimate D2E/DX2                !
 ! R20   R(15,16)                1.0955         estimate D2E/DX2                !
 ! R21   R(15,17)                1.0963         estimate D2E/DX2                !
 ! R22   R(15,18)                1.5175         estimate D2E/DX2                !
 ! R23   R(18,19)                1.0991         estimate D2E/DX2                !
 ! R24   R(18,20)                1.0991         estimate D2E/DX2                !
 ! R25   R(18,21)                1.4148         estimate D2E/DX2                !
 ! R26   R(21,22)                1.4165         estimate D2E/DX2                !
 ! R27   R(22,23)                1.0991         estimate D2E/DX2                !
 ! R28   R(22,24)                1.0991         estimate D2E/DX2                !
 ! R29   R(22,25)                1.5182         estimate D2E/DX2                !
 ! R30   R(25,26)                1.0996         estimate D2E/DX2                !
 ! R31   R(25,27)                1.0988         estimate D2E/DX2                !
 ! R32   R(25,28)                1.4142         estimate D2E/DX2                !
 ! R33   R(28,29)                1.4161         estimate D2E/DX2                !
 ! R34   R(29,30)                1.0985         estimate D2E/DX2                !
 ! R35   R(29,31)                1.0994         estimate D2E/DX2                !
 ! R36   R(29,32)                1.5182         estimate D2E/DX2                !
 ! R37   R(32,33)                1.1002         estimate D2E/DX2                !
 ! R38   R(32,34)                1.1002         estimate D2E/DX2                !
 ! R39   R(32,35)                1.413          estimate D2E/DX2                !
 ! R40   R(35,36)                1.4124         estimate D2E/DX2                !
 ! R41   R(36,37)                1.0996         estimate D2E/DX2                !
 ! R42   R(36,38)                1.0903         estimate D2E/DX2                !
 ! R43   R(36,39)                1.0996         estimate D2E/DX2                !
 ! R44   R(40,41)                1.0957         estimate D2E/DX2                !
 ! R45   R(40,42)                1.0949         estimate D2E/DX2                !
 ! R46   R(40,43)                1.5182         estimate D2E/DX2                !
 ! R47   R(43,44)                1.0985         estimate D2E/DX2                !
 ! R48   R(43,45)                1.0993         estimate D2E/DX2                !
 ! R49   R(43,46)                1.4148         estimate D2E/DX2                !
 ! R50   R(46,47)                1.4165         estimate D2E/DX2                !
 ! R51   R(47,48)                1.0996         estimate D2E/DX2                !
 ! R52   R(47,49)                1.0991         estimate D2E/DX2                !
 ! R53   R(47,50)                1.5182         estimate D2E/DX2                !
 ! R54   R(50,51)                1.0996         estimate D2E/DX2                !
 ! R55   R(50,52)                1.0988         estimate D2E/DX2                !
 ! R56   R(50,53)                1.4148         estimate D2E/DX2                !
 ! R57   R(53,54)                1.4161         estimate D2E/DX2                !
 ! R58   R(54,55)                1.0993         estimate D2E/DX2                !
 ! R59   R(54,56)                1.0994         estimate D2E/DX2                !
 ! R60   R(54,57)                1.5175         estimate D2E/DX2                !
 ! R61   R(57,58)                1.1001         estimate D2E/DX2                !
 ! R62   R(57,59)                1.1002         estimate D2E/DX2                !
 ! R63   R(57,60)                1.4139         estimate D2E/DX2                !
 ! R64   R(60,61)                1.4124         estimate D2E/DX2                !
 ! R65   R(61,62)                1.0996         estimate D2E/DX2                !
 ! R66   R(61,63)                1.0903         estimate D2E/DX2                !
 ! R67   R(61,64)                1.0996         estimate D2E/DX2                !
 ! R68   R(65,66)                2.1701         estimate D2E/DX2                !
 ! R69   R(65,70)                2.17           estimate D2E/DX2                !
 ! R70   R(65,74)                2.1701         estimate D2E/DX2                !
 ! R71   R(66,67)                1.0699         estimate D2E/DX2                !
 ! R72   R(66,68)                1.0704         estimate D2E/DX2                !
 ! R73   R(66,69)                1.0696         estimate D2E/DX2                !
 ! R74   R(70,71)                1.0701         estimate D2E/DX2                !
 ! R75   R(70,72)                1.0703         estimate D2E/DX2                !
 ! R76   R(70,73)                1.0703         estimate D2E/DX2                !
 ! R77   R(74,75)                1.0705         estimate D2E/DX2                !
 ! R78   R(74,76)                1.0703         estimate D2E/DX2                !
 ! R79   R(74,77)                1.0691         estimate D2E/DX2                !
 ! R80   R(78,79)                2.1703         estimate D2E/DX2                !
 ! R81   R(78,83)                2.1702         estimate D2E/DX2                !
 ! R82   R(78,87)                2.1699         estimate D2E/DX2                !
 ! R83   R(79,80)                1.0696         estimate D2E/DX2                !
 ! R84   R(79,81)                1.0701         estimate D2E/DX2                !
 ! R85   R(79,82)                1.0699         estimate D2E/DX2                !
 ! R86   R(83,84)                1.0701         estimate D2E/DX2                !
 ! R87   R(83,85)                1.0694         estimate D2E/DX2                !
 ! R88   R(83,86)                1.0702         estimate D2E/DX2                !
 ! R89   R(87,88)                1.0692         estimate D2E/DX2                !
 ! R90   R(87,89)                1.0702         estimate D2E/DX2                !
 ! R91   R(87,90)                1.0701         estimate D2E/DX2                !
 ! A1    A(2,1,5)              109.2339         estimate D2E/DX2                !
 ! A2    A(2,1,8)              128.1236         estimate D2E/DX2                !
 ! A3    A(5,1,8)              122.6425         estimate D2E/DX2                !
 ! A4    A(1,2,3)              114.2828         estimate D2E/DX2                !
 ! A5    A(1,2,6)              119.6024         estimate D2E/DX2                !
 ! A6    A(3,2,6)              126.1147         estimate D2E/DX2                !
 ! A7    A(2,3,4)              112.1188         estimate D2E/DX2                !
 ! A8    A(2,3,7)              124.3836         estimate D2E/DX2                !
 ! A9    A(4,3,7)              123.4976         estimate D2E/DX2                !
 ! A10   A(3,4,5)              112.3899         estimate D2E/DX2                !
 ! A11   A(3,4,65)             118.3803         estimate D2E/DX2                !
 ! A12   A(5,4,65)             129.2298         estimate D2E/DX2                !
 ! A13   A(1,5,4)               91.9745         estimate D2E/DX2                !
 ! A14   A(2,6,15)             118.2013         estimate D2E/DX2                !
 ! A15   A(1,8,9)              128.1236         estimate D2E/DX2                !
 ! A16   A(1,8,12)             122.6656         estimate D2E/DX2                !
 ! A17   A(9,8,12)             109.2108         estimate D2E/DX2                !
 ! A18   A(8,9,10)             114.3231         estimate D2E/DX2                !
 ! A19   A(8,9,13)             119.6024         estimate D2E/DX2                !
 ! A20   A(10,9,13)            126.0745         estimate D2E/DX2                !
 ! A21   A(9,10,11)            112.0639         estimate D2E/DX2                !
 ! A22   A(9,10,14)            124.4979         estimate D2E/DX2                !
 ! A23   A(11,10,14)           123.4382         estimate D2E/DX2                !
 ! A24   A(10,11,12)           112.4271         estimate D2E/DX2                !
 ! A25   A(10,11,78)           121.839          estimate D2E/DX2                !
 ! A26   A(12,11,78)           125.7339         estimate D2E/DX2                !
 ! A27   A(8,12,11)             91.9751         estimate D2E/DX2                !
 ! A28   A(9,13,40)            118.1656         estimate D2E/DX2                !
 ! A29   A(6,15,16)            110.7316         estimate D2E/DX2                !
 ! A30   A(6,15,17)            110.7155         estimate D2E/DX2                !
 ! A31   A(6,15,18)            107.0381         estimate D2E/DX2                !
 ! A32   A(16,15,17)           108.6994         estimate D2E/DX2                !
 ! A33   A(16,15,18)           109.8304         estimate D2E/DX2                !
 ! A34   A(17,15,18)           109.8151         estimate D2E/DX2                !
 ! A35   A(15,18,19)           109.8841         estimate D2E/DX2                !
 ! A36   A(15,18,20)           109.8841         estimate D2E/DX2                !
 ! A37   A(15,18,21)           106.8333         estimate D2E/DX2                !
 ! A38   A(19,18,20)           107.9648         estimate D2E/DX2                !
 ! A39   A(19,18,21)           111.1397         estimate D2E/DX2                !
 ! A40   A(20,18,21)           111.1397         estimate D2E/DX2                !
 ! A41   A(18,21,22)           113.4955         estimate D2E/DX2                !
 ! A42   A(21,22,23)           110.9326         estimate D2E/DX2                !
 ! A43   A(21,22,24)           110.9326         estimate D2E/DX2                !
 ! A44   A(21,22,25)           107.5732         estimate D2E/DX2                !
 ! A45   A(23,22,24)           107.9724         estimate D2E/DX2                !
 ! A46   A(23,22,25)           109.7142         estimate D2E/DX2                !
 ! A47   A(24,22,25)           109.7142         estimate D2E/DX2                !
 ! A48   A(22,25,26)           109.642          estimate D2E/DX2                !
 ! A49   A(22,25,27)           109.7029         estimate D2E/DX2                !
 ! A50   A(22,25,28)           107.4968         estimate D2E/DX2                !
 ! A51   A(26,25,27)           107.8606         estimate D2E/DX2                !
 ! A52   A(26,25,28)           111.0815         estimate D2E/DX2                !
 ! A53   A(27,25,28)           111.054          estimate D2E/DX2                !
 ! A54   A(25,28,29)           113.4925         estimate D2E/DX2                !
 ! A55   A(28,29,30)           110.9786         estimate D2E/DX2                !
 ! A56   A(28,29,31)           110.9399         estimate D2E/DX2                !
 ! A57   A(28,29,32)           107.6274         estimate D2E/DX2                !
 ! A58   A(30,29,31)           107.9028         estimate D2E/DX2                !
 ! A59   A(30,29,32)           109.7231         estimate D2E/DX2                !
 ! A60   A(31,29,32)           109.6669         estimate D2E/DX2                !
 ! A61   A(29,32,33)           109.6129         estimate D2E/DX2                !
 ! A62   A(29,32,34)           109.6129         estimate D2E/DX2                !
 ! A63   A(29,32,35)           107.5165         estimate D2E/DX2                !
 ! A64   A(33,32,34)           107.8139         estimate D2E/DX2                !
 ! A65   A(33,32,35)           111.1394         estimate D2E/DX2                !
 ! A66   A(34,32,35)           111.1394         estimate D2E/DX2                !
 ! A67   A(32,35,36)           112.9567         estimate D2E/DX2                !
 ! A68   A(35,36,37)           111.6269         estimate D2E/DX2                !
 ! A69   A(35,36,38)           107.2479         estimate D2E/DX2                !
 ! A70   A(35,36,39)           111.6269         estimate D2E/DX2                !
 ! A71   A(37,36,38)           108.9233         estimate D2E/DX2                !
 ! A72   A(37,36,39)           108.4269         estimate D2E/DX2                !
 ! A73   A(38,36,39)           108.9234         estimate D2E/DX2                !
 ! A74   A(13,40,41)           110.7188         estimate D2E/DX2                !
 ! A75   A(13,40,42)           110.7349         estimate D2E/DX2                !
 ! A76   A(13,40,43)           106.976          estimate D2E/DX2                !
 ! A77   A(41,40,42)           108.7831         estimate D2E/DX2                !
 ! A78   A(41,40,43)           109.7669         estimate D2E/DX2                !
 ! A79   A(42,40,43)           109.8474         estimate D2E/DX2                !
 ! A80   A(40,43,44)           109.9013         estimate D2E/DX2                !
 ! A81   A(40,43,45)           109.8211         estimate D2E/DX2                !
 ! A82   A(40,43,46)           106.8069         estimate D2E/DX2                !
 ! A83   A(44,43,45)           108.0785         estimate D2E/DX2                !
 ! A84   A(44,43,46)           111.1254         estimate D2E/DX2                !
 ! A85   A(45,43,46)           111.1091         estimate D2E/DX2                !
 ! A86   A(43,46,47)           113.4955         estimate D2E/DX2                !
 ! A87   A(46,47,48)           110.9559         estimate D2E/DX2                !
 ! A88   A(46,47,49)           110.9326         estimate D2E/DX2                !
 ! A89   A(46,47,50)           107.5732         estimate D2E/DX2                !
 ! A90   A(48,47,49)           107.9303         estimate D2E/DX2                !
 ! A91   A(48,47,50)           109.7337         estimate D2E/DX2                !
 ! A92   A(49,47,50)           109.7142         estimate D2E/DX2                !
 ! A93   A(47,50,51)           109.6879         estimate D2E/DX2                !
 ! A94   A(47,50,52)           109.7029         estimate D2E/DX2                !
 ! A95   A(47,50,53)           107.4654         estimate D2E/DX2                !
 ! A96   A(51,50,52)           107.8596         estimate D2E/DX2                !
 ! A97   A(51,50,53)           111.0535         estimate D2E/DX2                !
 ! A98   A(52,50,53)           111.0697         estimate D2E/DX2                !
 ! A99   A(50,53,54)           113.461          estimate D2E/DX2                !
 ! A100  A(53,54,55)           110.9625         estimate D2E/DX2                !
 ! A101  A(53,54,56)           110.9399         estimate D2E/DX2                !
 ! A102  A(53,54,57)           107.6008         estimate D2E/DX2                !
 ! A103  A(55,54,56)           107.9335         estimate D2E/DX2                !
 ! A104  A(55,54,57)           109.7216         estimate D2E/DX2                !
 ! A105  A(56,54,57)           109.6805         estimate D2E/DX2                !
 ! A106  A(54,57,58)           109.6677         estimate D2E/DX2                !
 ! A107  A(54,57,59)           109.6266         estimate D2E/DX2                !
 ! A108  A(54,57,60)           107.5087         estimate D2E/DX2                !
 ! A109  A(58,57,59)           107.8213         estimate D2E/DX2                !
 ! A110  A(58,57,60)           111.0826         estimate D2E/DX2                !
 ! A111  A(59,57,60)           111.13           estimate D2E/DX2                !
 ! A112  A(57,60,61)           112.9755         estimate D2E/DX2                !
 ! A113  A(60,61,62)           111.6269         estimate D2E/DX2                !
 ! A114  A(60,61,63)           107.2479         estimate D2E/DX2                !
 ! A115  A(60,61,64)           111.5835         estimate D2E/DX2                !
 ! A116  A(62,61,63)           108.9684         estimate D2E/DX2                !
 ! A117  A(62,61,64)           108.4266         estimate D2E/DX2                !
 ! A118  A(63,61,64)           108.9242         estimate D2E/DX2                !
 ! A119  A(4,65,66)            114.9083         estimate D2E/DX2                !
 ! A120  A(4,65,70)             97.9521         estimate D2E/DX2                !
 ! A121  A(4,65,74)            114.8601         estimate D2E/DX2                !
 ! A122  A(66,65,70)           109.4612         estimate D2E/DX2                !
 ! A123  A(66,65,74)           109.4839         estimate D2E/DX2                !
 ! A124  A(70,65,74)           109.4612         estimate D2E/DX2                !
 ! A125  A(65,66,67)           109.4712         estimate D2E/DX2                !
 ! A126  A(65,66,68)           109.4758         estimate D2E/DX2                !
 ! A127  A(65,66,69)           109.4877         estimate D2E/DX2                !
 ! A128  A(67,66,68)           109.4096         estimate D2E/DX2                !
 ! A129  A(67,66,69)           109.4871         estimate D2E/DX2                !
 ! A130  A(68,66,69)           109.4958         estimate D2E/DX2                !
 ! A131  A(65,70,71)           109.4886         estimate D2E/DX2                !
 ! A132  A(65,70,72)           109.4838         estimate D2E/DX2                !
 ! A133  A(65,70,73)           109.4845         estimate D2E/DX2                !
 ! A134  A(71,70,72)           109.5048         estimate D2E/DX2                !
 ! A135  A(71,70,73)           109.4208         estimate D2E/DX2                !
 ! A136  A(72,70,73)           109.4448         estimate D2E/DX2                !
 ! A137  A(65,74,75)           109.4681         estimate D2E/DX2                !
 ! A138  A(65,74,76)           109.4776         estimate D2E/DX2                !
 ! A139  A(65,74,77)           109.4883         estimate D2E/DX2                !
 ! A140  A(75,74,76)           109.4484         estimate D2E/DX2                !
 ! A141  A(75,74,77)           109.466          estimate D2E/DX2                !
 ! A142  A(76,74,77)           109.4788         estimate D2E/DX2                !
 ! A143  A(11,78,79)           119.848          estimate D2E/DX2                !
 ! A144  A(11,78,83)           111.3953         estimate D2E/DX2                !
 ! A145  A(11,78,87)           114.4622         estimate D2E/DX2                !
 ! A146  A(79,78,83)            97.8625         estimate D2E/DX2                !
 ! A147  A(79,78,87)           107.2649         estimate D2E/DX2                !
 ! A148  A(83,78,87)           103.683          estimate D2E/DX2                !
 ! A149  A(78,79,80)           109.485          estimate D2E/DX2                !
 ! A150  A(78,79,81)           109.4426         estimate D2E/DX2                !
 ! A151  A(78,79,82)           109.4661         estimate D2E/DX2                !
 ! A152  A(80,79,81)           109.4547         estimate D2E/DX2                !
 ! A153  A(80,79,82)           109.4949         estimate D2E/DX2                !
 ! A154  A(81,79,82)           109.484          estimate D2E/DX2                !
 ! A155  A(78,83,84)           109.4504         estimate D2E/DX2                !
 ! A156  A(78,83,85)           109.4678         estimate D2E/DX2                !
 ! A157  A(78,83,86)           109.4704         estimate D2E/DX2                !
 ! A158  A(84,83,85)           109.4989         estimate D2E/DX2                !
 ! A159  A(84,83,86)           109.4681         estimate D2E/DX2                !
 ! A160  A(85,83,86)           109.4717         estimate D2E/DX2                !
 ! A161  A(78,87,88)           109.4847         estimate D2E/DX2                !
 ! A162  A(78,87,89)           109.448          estimate D2E/DX2                !
 ! A163  A(78,87,90)           109.4301         estimate D2E/DX2                !
 ! A164  A(88,87,89)           109.5353         estimate D2E/DX2                !
 ! A165  A(88,87,90)           109.48           estimate D2E/DX2                !
 ! A166  A(89,87,90)           109.4492         estimate D2E/DX2                !
 ! D1    D(5,1,2,3)              0.0            estimate D2E/DX2                !
 ! D2    D(5,1,2,6)            179.9517         estimate D2E/DX2                !
 ! D3    D(8,1,2,3)            180.0            estimate D2E/DX2                !
 ! D4    D(8,1,2,6)             -0.0483         estimate D2E/DX2                !
 ! D5    D(2,1,5,4)              0.0            estimate D2E/DX2                !
 ! D6    D(8,1,5,4)            180.0            estimate D2E/DX2                !
 ! D7    D(2,1,8,9)           -140.0            estimate D2E/DX2                !
 ! D8    D(2,1,8,12)            40.0387         estimate D2E/DX2                !
 ! D9    D(5,1,8,9)             40.0            Frozen                          !
 ! D10   D(5,1,8,12)          -139.9613         estimate D2E/DX2                !
 ! D11   D(1,2,3,4)              0.0            estimate D2E/DX2                !
 ! D12   D(1,2,3,7)            179.9357         estimate D2E/DX2                !
 ! D13   D(6,2,3,4)           -179.948          estimate D2E/DX2                !
 ! D14   D(6,2,3,7)             -0.0123         estimate D2E/DX2                !
 ! D15   D(1,2,6,15)          -179.9987         estimate D2E/DX2                !
 ! D16   D(3,2,6,15)            -0.0532         estimate D2E/DX2                !
 ! D17   D(2,3,4,5)              0.0            estimate D2E/DX2                !
 ! D18   D(2,3,4,65)           179.9696         estimate D2E/DX2                !
 ! D19   D(7,3,4,5)           -179.9364         estimate D2E/DX2                !
 ! D20   D(7,3,4,65)             0.0332         estimate D2E/DX2                !
 ! D21   D(3,4,5,1)              0.0            estimate D2E/DX2                !
 ! D22   D(65,4,5,1)          -179.9654         estimate D2E/DX2                !
 ! D23   D(3,4,65,66)          -64.1551         estimate D2E/DX2                !
 ! D24   D(3,4,65,70)         -179.9893         estimate D2E/DX2                !
 ! D25   D(3,4,65,74)           64.1948         estimate D2E/DX2                !
 ! D26   D(5,4,65,66)          115.8086         estimate D2E/DX2                !
 ! D27   D(5,4,65,70)           -0.0256         estimate D2E/DX2                !
 ! D28   D(5,4,65,74)         -115.8415         estimate D2E/DX2                !
 ! D29   D(2,6,15,16)           60.3535         estimate D2E/DX2                !
 ! D30   D(2,6,15,17)          -60.2859         estimate D2E/DX2                !
 ! D31   D(2,6,15,18)         -179.9523         estimate D2E/DX2                !
 ! D32   D(1,8,9,10)           180.0            estimate D2E/DX2                !
 ! D33   D(1,8,9,13)             0.0            estimate D2E/DX2                !
 ! D34   D(12,8,9,10)           -0.0345         estimate D2E/DX2                !
 ! D35   D(12,8,9,13)          179.9655         estimate D2E/DX2                !
 ! D36   D(1,8,12,11)         -179.9866         estimate D2E/DX2                !
 ! D37   D(9,8,12,11)            0.0457         estimate D2E/DX2                !
 ! D38   D(8,9,10,11)            0.0            estimate D2E/DX2                !
 ! D39   D(8,9,10,14)          180.0            estimate D2E/DX2                !
 ! D40   D(13,9,10,11)         180.0            estimate D2E/DX2                !
 ! D41   D(13,9,10,14)           0.0            estimate D2E/DX2                !
 ! D42   D(8,9,13,40)          180.0            estimate D2E/DX2                !
 ! D43   D(10,9,13,40)           0.0            estimate D2E/DX2                !
 ! D44   D(9,10,11,12)           0.0359         estimate D2E/DX2                !
 ! D45   D(9,10,11,78)         179.9685         estimate D2E/DX2                !
 ! D46   D(14,10,11,12)       -179.9641         estimate D2E/DX2                !
 ! D47   D(14,10,11,78)         -0.0315         estimate D2E/DX2                !
 ! D48   D(10,11,12,8)          -0.0474         estimate D2E/DX2                !
 ! D49   D(78,11,12,8)        -179.9769         estimate D2E/DX2                !
 ! D50   D(10,11,78,79)        129.5663         estimate D2E/DX2                !
 ! D51   D(10,11,78,83)       -117.2167         estimate D2E/DX2                !
 ! D52   D(10,11,78,87)         -0.0002         estimate D2E/DX2                !
 ! D53   D(12,11,78,79)        -50.5105         estimate D2E/DX2                !
 ! D54   D(12,11,78,83)         62.7065         estimate D2E/DX2                !
 ! D55   D(12,11,78,87)        179.923          estimate D2E/DX2                !
 ! D56   D(9,13,40,41)          60.3884         estimate D2E/DX2                !
 ! D57   D(9,13,40,42)         -60.3608         estimate D2E/DX2                !
 ! D58   D(9,13,40,43)         179.9605         estimate D2E/DX2                !
 ! D59   D(6,15,18,19)         -59.3294         estimate D2E/DX2                !
 ! D60   D(6,15,18,20)          59.3294         estimate D2E/DX2                !
 ! D61   D(6,15,18,21)        -180.0            estimate D2E/DX2                !
 ! D62   D(16,15,18,19)         60.9419         estimate D2E/DX2                !
 ! D63   D(16,15,18,20)        179.6007         estimate D2E/DX2                !
 ! D64   D(16,15,18,21)        -59.7287         estimate D2E/DX2                !
 ! D65   D(17,15,18,19)       -179.5727         estimate D2E/DX2                !
 ! D66   D(17,15,18,20)        -60.9139         estimate D2E/DX2                !
 ! D67   D(17,15,18,21)         59.7567         estimate D2E/DX2                !
 ! D68   D(15,18,21,22)       -180.0            estimate D2E/DX2                !
 ! D69   D(19,18,21,22)         60.1343         estimate D2E/DX2                !
 ! D70   D(20,18,21,22)        -60.1343         estimate D2E/DX2                !
 ! D71   D(18,21,22,23)        -60.0008         estimate D2E/DX2                !
 ! D72   D(18,21,22,24)         60.0008         estimate D2E/DX2                !
 ! D73   D(18,21,22,25)        180.0            estimate D2E/DX2                !
 ! D74   D(21,22,25,26)         59.139          estimate D2E/DX2                !
 ! D75   D(21,22,25,27)        -59.1368         estimate D2E/DX2                !
 ! D76   D(21,22,25,28)        180.0            estimate D2E/DX2                !
 ! D77   D(23,22,25,26)        -61.6299         estimate D2E/DX2                !
 ! D78   D(23,22,25,27)       -179.9057         estimate D2E/DX2                !
 ! D79   D(23,22,25,28)         59.2311         estimate D2E/DX2                !
 ! D80   D(24,22,25,26)        179.9079         estimate D2E/DX2                !
 ! D81   D(24,22,25,27)         61.6321         estimate D2E/DX2                !
 ! D82   D(24,22,25,28)        -59.2311         estimate D2E/DX2                !
 ! D83   D(22,25,28,29)       -179.9559         estimate D2E/DX2                !
 ! D84   D(26,25,28,29)        -60.0053         estimate D2E/DX2                !
 ! D85   D(27,25,28,29)         60.0352         estimate D2E/DX2                !
 ! D86   D(25,28,29,30)         59.9242         estimate D2E/DX2                !
 ! D87   D(25,28,29,31)        -60.0251         estimate D2E/DX2                !
 ! D88   D(25,28,29,32)        179.9953         estimate D2E/DX2                !
 ! D89   D(28,29,32,33)         59.0314         estimate D2E/DX2                !
 ! D90   D(28,29,32,34)        -59.1164         estimate D2E/DX2                !
 ! D91   D(28,29,32,35)        179.9575         estimate D2E/DX2                !
 ! D92   D(30,29,32,33)        179.8942         estimate D2E/DX2                !
 ! D93   D(30,29,32,34)         61.7464         estimate D2E/DX2                !
 ! D94   D(30,29,32,35)        -59.1797         estimate D2E/DX2                !
 ! D95   D(31,29,32,33)        -61.7516         estimate D2E/DX2                !
 ! D96   D(31,29,32,34)       -179.8994         estimate D2E/DX2                !
 ! D97   D(31,29,32,35)         59.1745         estimate D2E/DX2                !
 ! D98   D(29,32,35,36)        180.0            estimate D2E/DX2                !
 ! D99   D(33,32,35,36)        -60.0386         estimate D2E/DX2                !
 ! D100  D(34,32,35,36)         60.0386         estimate D2E/DX2                !
 ! D101  D(32,35,36,37)         60.7659         estimate D2E/DX2                !
 ! D102  D(32,35,36,38)        180.0            estimate D2E/DX2                !
 ! D103  D(32,35,36,39)        -60.7659         estimate D2E/DX2                !
 ! D104  D(13,40,43,44)        -59.3525         estimate D2E/DX2                !
 ! D105  D(13,40,43,45)         59.4177         estimate D2E/DX2                !
 ! D106  D(13,40,43,46)       -179.9999         estimate D2E/DX2                !
 ! D107  D(41,40,43,44)         60.8307         estimate D2E/DX2                !
 ! D108  D(41,40,43,45)        179.6008         estimate D2E/DX2                !
 ! D109  D(41,40,43,46)        -59.8167         estimate D2E/DX2                !
 ! D110  D(42,40,43,44)       -179.6004         estimate D2E/DX2                !
 ! D111  D(42,40,43,45)        -60.8302         estimate D2E/DX2                !
 ! D112  D(42,40,43,46)         59.7523         estimate D2E/DX2                !
 ! D113  D(40,43,46,47)       -179.9606         estimate D2E/DX2                !
 ! D114  D(44,43,46,47)         60.1773         estimate D2E/DX2                !
 ! D115  D(45,43,46,47)        -60.2051         estimate D2E/DX2                !
 ! D116  D(43,46,47,48)        -59.9632         estimate D2E/DX2                !
 ! D117  D(43,46,47,49)         60.0008         estimate D2E/DX2                !
 ! D118  D(43,46,47,50)        180.0            estimate D2E/DX2                !
 ! D119  D(46,47,50,51)         59.1652         estimate D2E/DX2                !
 ! D120  D(46,47,50,52)        -59.1368         estimate D2E/DX2                !
 ! D121  D(46,47,50,53)        180.0            estimate D2E/DX2                !
 ! D122  D(48,47,50,51)        -61.6434         estimate D2E/DX2                !
 ! D123  D(48,47,50,52)       -179.9454         estimate D2E/DX2                !
 ! D124  D(48,47,50,53)         59.1914         estimate D2E/DX2                !
 ! D125  D(49,47,50,51)        179.9341         estimate D2E/DX2                !
 ! D126  D(49,47,50,52)         61.6321         estimate D2E/DX2                !
 ! D127  D(49,47,50,53)        -59.2311         estimate D2E/DX2                !
 ! D128  D(47,50,53,54)       -179.9559         estimate D2E/DX2                !
 ! D129  D(51,50,53,54)        -59.9853         estimate D2E/DX2                !
 ! D130  D(52,50,53,54)         60.0456         estimate D2E/DX2                !
 ! D131  D(50,53,54,55)         59.9522         estimate D2E/DX2                !
 ! D132  D(50,53,54,56)        -60.0251         estimate D2E/DX2                !
 ! D133  D(50,53,54,57)        179.9953         estimate D2E/DX2                !
 ! D134  D(53,54,57,58)         59.0731         estimate D2E/DX2                !
 ! D135  D(53,54,57,59)        -59.1245         estimate D2E/DX2                !
 ! D136  D(53,54,57,60)        179.9576         estimate D2E/DX2                !
 ! D137  D(55,54,57,58)        179.8993         estimate D2E/DX2                !
 ! D138  D(55,54,57,59)         61.7017         estimate D2E/DX2                !
 ! D139  D(55,54,57,60)        -59.2163         estimate D2E/DX2                !
 ! D140  D(56,54,57,58)        -61.7018         estimate D2E/DX2                !
 ! D141  D(56,54,57,59)       -179.8993         estimate D2E/DX2                !
 ! D142  D(56,54,57,60)         59.1827         estimate D2E/DX2                !
 ! D143  D(54,57,60,61)        180.0            estimate D2E/DX2                !
 ! D144  D(58,57,60,61)        -60.01           estimate D2E/DX2                !
 ! D145  D(59,57,60,61)         60.0324         estimate D2E/DX2                !
 ! D146  D(57,60,61,62)         60.7659         estimate D2E/DX2                !
 ! D147  D(57,60,61,63)       -179.945          estimate D2E/DX2                !
 ! D148  D(57,60,61,64)        -60.7348         estimate D2E/DX2                !
 ! D149  D(4,65,66,67)          78.8333         estimate D2E/DX2                !
 ! D150  D(4,65,66,68)        -161.2394         estimate D2E/DX2                !
 ! D151  D(4,65,66,69)         -41.1964         estimate D2E/DX2                !
 ! D152  D(70,65,66,67)       -172.149          estimate D2E/DX2                !
 ! D153  D(70,65,66,68)        -52.2217         estimate D2E/DX2                !
 ! D154  D(70,65,66,69)         67.8214         estimate D2E/DX2                !
 ! D155  D(74,65,66,67)        -52.1598         estimate D2E/DX2                !
 ! D156  D(74,65,66,68)         67.7675         estimate D2E/DX2                !
 ! D157  D(74,65,66,69)       -172.1894         estimate D2E/DX2                !
 ! D158  D(4,65,70,71)         -60.1295         estimate D2E/DX2                !
 ! D159  D(4,65,70,72)          59.93           estimate D2E/DX2                !
 ! D160  D(4,65,70,73)         179.9135         estimate D2E/DX2                !
 ! D161  D(66,65,70,71)        179.8451         estimate D2E/DX2                !
 ! D162  D(66,65,70,72)        -60.0955         estimate D2E/DX2                !
 ! D163  D(66,65,70,73)         59.888          estimate D2E/DX2                !
 ! D164  D(74,65,70,71)         59.8419         estimate D2E/DX2                !
 ! D165  D(74,65,70,72)        179.9014         estimate D2E/DX2                !
 ! D166  D(74,65,70,73)        -60.1151         estimate D2E/DX2                !
 ! D167  D(4,65,74,75)         164.2095         estimate D2E/DX2                !
 ! D168  D(4,65,74,76)         -75.8164         estimate D2E/DX2                !
 ! D169  D(4,65,74,77)          44.2073         estimate D2E/DX2                !
 ! D170  D(66,65,74,75)        -64.7717         estimate D2E/DX2                !
 ! D171  D(66,65,74,76)         55.2024         estimate D2E/DX2                !
 ! D172  D(66,65,74,77)        175.2261         estimate D2E/DX2                !
 ! D173  D(70,65,74,75)         55.2175         estimate D2E/DX2                !
 ! D174  D(70,65,74,76)        175.1916         estimate D2E/DX2                !
 ! D175  D(70,65,74,77)        -64.7847         estimate D2E/DX2                !
 ! D176  D(11,78,79,80)         80.7584         estimate D2E/DX2                !
 ! D177  D(11,78,79,81)       -159.2709         estimate D2E/DX2                !
 ! D178  D(11,78,79,82)        -39.2759         estimate D2E/DX2                !
 ! D179  D(83,78,79,80)        -39.4951         estimate D2E/DX2                !
 ! D180  D(83,78,79,81)         80.4757         estimate D2E/DX2                !
 ! D181  D(83,78,79,82)       -159.5294         estimate D2E/DX2                !
 ! D182  D(87,78,79,80)       -146.5315         estimate D2E/DX2                !
 ! D183  D(87,78,79,81)        -26.5608         estimate D2E/DX2                !
 ! D184  D(87,78,79,82)         93.4342         estimate D2E/DX2                !
 ! D185  D(11,78,83,84)        164.9842         estimate D2E/DX2                !
 ! D186  D(11,78,83,85)        -74.9968         estimate D2E/DX2                !
 ! D187  D(11,78,83,86)         45.0012         estimate D2E/DX2                !
 ! D188  D(79,78,83,84)        -68.5946         estimate D2E/DX2                !
 ! D189  D(79,78,83,85)         51.4244         estimate D2E/DX2                !
 ! D190  D(79,78,83,86)        171.4224         estimate D2E/DX2                !
 ! D191  D(87,78,83,84)         41.4029         estimate D2E/DX2                !
 ! D192  D(87,78,83,85)        161.4219         estimate D2E/DX2                !
 ! D193  D(87,78,83,86)        -78.5801         estimate D2E/DX2                !
 ! D194  D(11,78,87,88)        -58.6701         estimate D2E/DX2                !
 ! D195  D(11,78,87,89)         61.4024         estimate D2E/DX2                !
 ! D196  D(11,78,87,90)       -178.6639         estimate D2E/DX2                !
 ! D197  D(79,78,87,88)        165.7709         estimate D2E/DX2                !
 ! D198  D(79,78,87,89)        -74.1565         estimate D2E/DX2                !
 ! D199  D(79,78,87,90)         45.7771         estimate D2E/DX2                !
 ! D200  D(83,78,87,88)         62.8797         estimate D2E/DX2                !
 ! D201  D(83,78,87,89)       -177.0478         estimate D2E/DX2                !
 ! D202  D(83,78,87,90)        -57.1141         estimate D2E/DX2                !
 --------------------------------------------------------------------------------
 Trust Radius=3.00D-01 FncErr=1.00D-07 GrdErr=1.00D-06 EigMax=2.50D+02 EigMin=1.00D-04
 Number of steps in this run=    469 maximum allowed number of steps=    540.
 GradGradGradGradGradGradGradGradGradGradGradGradGradGradGradGradGradGrad

 Leave Link  103 at Tue Mar  3 11:49:20 2020, MaxMem=  6710886400 cpu:               0.3 elap:               0.1
 (Enter /apps/gaussian/g16-a03/l202.exe)
 Stoichiometry    C28H50O8S2Sn2
 Framework group  C1[X(C28H50O8S2Sn2)]
 Deg. of freedom   264
 Full point group                 C1      NOp   1
 Largest Abelian subgroup         C1      NOp   1
 Largest concise Abelian subgroup C1      NOp   1
                         Standard orientation:                         
 ---------------------------------------------------------------------
 Center     Atomic      Atomic             Coordinates (Angstroms)
 Number     Number       Type             X           Y           Z
 ---------------------------------------------------------------------
      1          6           0        0.132268   -0.704550   -0.995286
      2          6           0        1.311567   -1.333327   -0.628054
      3          6           0        1.285530   -2.750460   -0.761285
      4          6           0        0.086382   -3.200216   -1.229925
      5         16           0       -1.031375   -1.915169   -1.517742
      6          8           0        2.364146   -0.586599   -0.186987
      7          1           0        2.114134   -3.400886   -0.522566
      8          6           0       -0.167466    0.708269   -0.979064
      9          6           0       -1.347841    1.328255   -0.600518
     10          6           0       -1.322411    2.748145   -0.699898
     11          6           0       -0.120988    3.208771   -1.154677
     12         16           0        0.997296    1.931766   -1.470479
     13          8           0       -2.401331    0.571433   -0.179275
     14          1           0       -2.150456    3.393839   -0.447760
     15          6           0        3.561796   -1.263570    0.182601
     16          1           0        3.971294   -1.819448   -0.667912
     17          1           0        3.373002   -1.965565    1.003212
     18          6           0        4.551729   -0.203827    0.629675
     19          1           0        4.736017    0.505056   -0.189816
     20          1           0        4.138733    0.359185    1.478493
     21          8           0        5.739019   -0.880587    0.995572
     22          6           0        6.768469   -0.014922    1.439823
     23          1           0        7.044962    0.702043    0.654050
     24          1           0        6.447678    0.556172    2.322360
     25          6           0        7.968799   -0.874262    1.794425
     26          1           0        8.287716   -1.446314    0.911134
     27          1           0        7.691710   -1.592122    2.578841
     28          8           0        8.995424   -0.008539    2.237670
     29          6           0       10.184923   -0.684260    2.603384
     30          1           0       10.593826   -1.248273    1.754077
     31          1           0        9.997819   -1.394081    3.421784
     32          6           0       11.188166    0.362261    3.054066
     33          1           0       10.776093    0.927247    3.903388
     34          1           0       11.373377    1.073118    2.235078
     35          8           0       12.373572   -0.314461    3.419292
     36          6           0       13.392596    0.558391    3.860439
     37          1           0       13.083069    1.125999    4.749902
     38          1           0       14.256302   -0.055980    4.115943
     39          1           0       13.682369    1.272362    3.075962
     40          6           0       -3.600074    1.240543    0.202649
     41          1           0       -4.007459    1.815271   -0.636583
     42          1           0       -3.413998    1.921935    1.039241
     43          6           0       -4.591582    0.169531    0.620879
     44          1           0       -4.773489   -0.518833   -0.215683
     45          1           0       -4.180694   -0.412289    1.458260
     46          8           0       -5.779945    0.837519    0.999198
     47          6           0       -6.810644   -0.038342    1.419948
     48          1           0       -7.084834   -0.737574    0.616758
     49          1           0       -6.492382   -0.630092    2.289700
     50          6           0       -8.012022    0.812441    1.791242
     51          1           0       -8.329350    1.405177    0.921097
     52          1           0       -7.737222    1.511602    2.593157
     53          8           0       -9.039883   -0.064452    2.211052
     54          6           0      -10.230456    0.602500    2.589158
     55          1           0      -10.637258    1.186331    1.751265
     56          1           0      -10.045739    1.292827    3.424599
     57          6           0      -11.234017   -0.454331    3.011815
     58          1           0      -10.825320   -1.039183    3.849102
     59          1           0      -11.416839   -1.145678    2.175768
     60          8           0      -12.421438    0.213646    3.389802
     61          6           0      -13.441701   -0.669327    3.807309
     62          1           0      -13.134724   -1.257755    4.684033
     63          1           0      -14.306495   -0.061181    4.073789
     64          1           0      -13.728242   -1.364610    3.005053
     65         50           0       -0.171933   -5.305912   -1.507587
     66          6           0        1.114005   -6.193785   -3.013339
     67          1           0        2.092274   -6.340151   -2.605559
     68          1           0        0.709982   -7.137625   -3.316180
     69          1           0        1.174069   -5.543014   -3.860004
     70          6           0       -2.215724   -5.264226   -2.235655
     71          1           0       -2.850669   -4.828940   -1.492386
     72          1           0       -2.263501   -4.681544   -3.132211
     73          1           0       -2.541702   -6.262615   -2.441787
     74          6           0       -0.076533   -6.484541    0.312021
     75          1           0       -0.480987   -7.458432    0.127893
     76          1           0        0.942886   -6.575412    0.625350
     77          1           0       -0.643719   -6.002462    1.079377
     78         50           0        0.258930    5.298007   -1.423258
     79          6           0        2.044345    6.189644   -0.570215
     80          1           0        2.880549    5.993645   -1.207765
     81          1           0        1.905794    7.246819   -0.478973
     82          1           0        2.226047    5.768787    0.396535
     83          6           0        0.656837    5.769242   -3.503943
     84          1           0        0.582838    6.826707   -3.650257
     85          1           0        1.641587    5.441260   -3.761656
     86          1           0       -0.058773    5.272230   -4.125424
     87          6           0       -1.410674    6.587497   -0.915137
     88          1           0       -2.257478    6.327085   -1.513719
     89          1           0       -1.653035    6.465378    0.120069
     90          1           0       -1.142536    7.606720   -1.100471
 ---------------------------------------------------------------------
 Rotational constants (GHZ):           0.0368635           0.0181399           0.0140427
 Leave Link  202 at Tue Mar  3 11:49:20 2020, MaxMem=  6710886400 cpu:               1.0 elap:               0.2
 (Enter /apps/gaussian/g16-a03/l301.exe)
 Standard basis: LANL2DZ (5D, 7F)
 Ernie: Thresh=  0.10000D-02 Tol=  0.10000D-05 Strict=F.
 There are   456 symmetry adapted cartesian basis functions of A   symmetry.
 There are   456 symmetry adapted basis functions of A   symmetry.
   456 basis functions,  1148 primitive gaussians,   456 cartesian basis functions
   151 alpha electrons      151 beta electrons
       nuclear repulsion energy      3845.0467913410 Hartrees.



 Warning!  S  atom    5 may be hypervalent but has no d functions.
 Warning!  S  atom   12 may be hypervalent but has no d functions.



 IExCor=  402 DFT=T Ex+Corr=B3LYP ExCW=0 ScaHFX=  0.200000
 ScaDFX=  0.800000  0.720000  1.000000  0.810000 ScalE2=  1.000000  1.000000
 IRadAn=      5 IRanWt=     -1 IRanGd=            0 ICorTp=0 IEmpDi=  4
 NAtoms=   90 NActive=   90 NUniq=   90 SFac= 1.00D+00 NAtFMM=   60 NAOKFM=T Big=T
 Integral buffers will be    131072 words long.
 Raffenetti 2 integral format.
 Two-electron integral symmetry is turned on.
 Leave Link  301 at Tue Mar  3 11:49:20 2020, MaxMem=  6710886400 cpu:               1.2 elap:               0.2
 (Enter /apps/gaussian/g16-a03/l302.exe)
 NPDir=0 NMtPBC=     1 NCelOv=     1 NCel=       1 NClECP=     1 NCelD=      1
         NCelK=      1 NCelE2=     1 NClLst=     1 CellRange=     0.0.
 One-electron integrals computed using PRISM.
 One-electron integral symmetry used in STVInt
   1 Symmetry operations used in ECPInt.
 ECPInt:  NShTT=   43956 NPrTT=  293396 LenC2=   25392 LenP2D=   85597.
 LDataN:  DoStor=T MaxTD1= 4 Len=   56
 NBasis=   456 RedAO= T EigKep=  1.09D-03  NBF=   456
 NBsUse=   456 1.00D-06 EigRej= -1.00D+00 NBFU=   456
 Precomputing XC quadrature grid using
 IXCGrd= 4 IRadAn=           5 IRanWt=          -1 IRanGd=           0 AccXCQ= 0.00D+00.
 Defaulting to unpruned grid for atomic number  50.
 Defaulting to unpruned grid for atomic number  50.
 Generated NRdTot=       0 NPtTot=           0 NUsed=           0 NTot=          32
 NSgBfM=   387   387   387   387   387 MxSgAt=    90 MxSgA2=    90.
 Leave Link  302 at Tue Mar  3 11:49:24 2020, MaxMem=  6710886400 cpu:              25.6 elap:               3.3
 (Enter /apps/gaussian/g16-a03/l303.exe)
 DipDrv:  MaxL=1.
 Leave Link  303 at Tue Mar  3 11:49:26 2020, MaxMem=  6710886400 cpu:               1.2 elap:               0.4
 (Enter /apps/gaussian/g16-a03/l401.exe)
 ExpMin= 6.30D-02 ExpMax= 7.82D+03 ExpMxC= 2.73D+02 IAcc=3 IRadAn=         5 AccDes= 0.00D+00
 Harris functional with IExCor=  402 and IRadAn=       5 diagonalized for initial guess.
 HarFok:  IExCor=  402 AccDes= 0.00D+00 IRadAn=         5 IDoV= 1 UseB2=F ITyADJ=14
 ICtDFT=  3500011 ScaDFX=  1.000000  1.000000  1.000000  1.000000
 Defaulting to unpruned grid for atomic number  50.
 FoFCou: FMM=F IPFlag=           0 FMFlag=      100000 FMFlg1=        2001
         NFxFlg=           0 DoJE=T BraDBF=F KetDBF=T FulRan=T
         wScrn=  0.000000 ICntrl=       500 IOpCl=  0 I1Cent=   200000004 NGrid=           0
         NMat0=    1 NMatS0=      1 NMatT0=    0 NMatD0=    1 NMtDS0=    0 NMtDT0=    0
 Petite list used in FoFCou.
 Harris En= -1725.68869042162    
 JPrj=0 DoOrth=F DoCkMO=F.
 Leave Link  401 at Tue Mar  3 11:49:34 2020, MaxMem=  6710886400 cpu:              64.0 elap:               8.2
 (Enter /apps/gaussian/g16-a03/l502.exe)
 Integral symmetry usage will be decided dynamically.
 Closed shell SCF:
 Using DIIS extrapolation, IDIIS=  1040.
 NGot=  6710886400 LenX=  6710460430 LenY=  6710252038
 Requested convergence on RMS density matrix=1.00D-08 within 128 cycles.
 Requested convergence on MAX density matrix=1.00D-06.
 Requested convergence on             energy=1.00D-06.
 No special actions if energy rises.
 Fock matrices will be formed incrementally for  20 cycles.
 Integral accuracy reduced to 1.0D-05 until final iterations.

 Cycle   1  Pass 0  IDiag  1:
 FoFJK:  IHMeth= 1 ICntrl=       0 DoSepK=F KAlg= 0 I1Cent=           0 FoldK=F
 IRaf= 730000000 NMat=       1 IRICut=       1 DoRegI=T DoRafI=F ISym2E= 0 IDoP0=0 IntGTp=1.
 FoFCou: FMM=T IPFlag=           0 FMFlag=      100000 FMFlg1=        2001
         NFxFlg=           0 DoJE=F BraDBF=F KetDBF=F FulRan=T
         wScrn=  0.000000 ICntrl=         0 IOpCl=  0 I1Cent=           0 NGrid=           0
         NMat0=    1 NMatS0=      1 NMatT0=    0 NMatD0=    1 NMtDS0=    0 NMtDT0=    0
 Symmetry not used in FoFCou.
 FMM levels:  10  Number of levels for PrismC:   9
 Defaulting to unpruned grid for atomic number  50.
 Defaulting to unpruned grid for atomic number  50.
 Defaulting to unpruned grid for atomic number  50.
 Defaulting to unpruned grid for atomic number  50.
 Defaulting to unpruned grid for atomic number  50.
 Defaulting to unpruned grid for atomic number  50.
 Defaulting to unpruned grid for atomic number  50.
 Defaulting to unpruned grid for atomic number  50.
 E= -1723.95319610537    
 DIIS: error= 6.74D-02 at cycle   1 NSaved=   1.
 NSaved= 1 IEnMin= 1 EnMin= -1723.95319610537     IErMin= 1 ErrMin= 6.74D-02
 ErrMax= 6.74D-02  0.00D+00 EMaxC= 1.00D-01 BMatC= 1.18D+00 BMatP= 1.18D+00
 IDIUse=3 WtCom= 3.26D-01 WtEn= 6.74D-01
 Coeff-Com:  0.100D+01
 Coeff-En:   0.100D+01
 Coeff:      0.100D+01
 Gap=     0.097 Goal=   None    Shift=    0.000
 GapD=    0.097 DampG=0.500 DampE=0.500 DampFc=0.2500 IDamp=-1.
 Damping current iteration by 2.50D-01
 RMSDP=6.50D-03 MaxDP=3.19D-01              OVMax= 2.89D-01

 Cycle   2  Pass 0  IDiag  1:
 RMSU=  1.59D-03    CP:  9.84D-01
 E= -1724.51509871582     Delta-E=       -0.561902610453 Rises=F Damp=T
 DIIS: error= 2.89D-02 at cycle   2 NSaved=   2.
 NSaved= 2 IEnMin= 2 EnMin= -1724.51509871582     IErMin= 2 ErrMin= 2.89D-02
 ErrMax= 2.89D-02  0.00D+00 EMaxC= 1.00D-01 BMatC= 2.48D-01 BMatP= 1.18D+00
 IDIUse=3 WtCom= 7.11D-01 WtEn= 2.89D-01
 Coeff-Com: -0.769D+00 0.177D+01
 Coeff-En:   0.000D+00 0.100D+01
 Coeff:     -0.546D+00 0.155D+01
 Gap=     0.162 Goal=   None    Shift=    0.000
 RMSDP=2.03D-03 MaxDP=1.17D-01 DE=-5.62D-01 OVMax= 2.02D-01

 Cycle   3  Pass 0  IDiag  1:
 RMSU=  1.35D-03    CP:  9.65D-01  1.92D+00
 E= -1725.37903785977     Delta-E=       -0.863939143951 Rises=F Damp=F
 DIIS: error= 1.31D-02 at cycle   3 NSaved=   3.
 NSaved= 3 IEnMin= 3 EnMin= -1725.37903785977     IErMin= 3 ErrMin= 1.31D-02
 ErrMax= 1.31D-02  0.00D+00 EMaxC= 1.00D-01 BMatC= 4.13D-02 BMatP= 2.48D-01
 IDIUse=3 WtCom= 8.69D-01 WtEn= 1.31D-01
 Coeff-Com: -0.123D+00 0.500D+00 0.623D+00
 Coeff-En:   0.000D+00 0.000D+00 0.100D+01
 Coeff:     -0.107D+00 0.435D+00 0.672D+00
 Gap=     0.152 Goal=   None    Shift=    0.000
 RMSDP=7.57D-04 MaxDP=5.63D-02 DE=-8.64D-01 OVMax= 6.24D-02

 Cycle   4  Pass 0  IDiag  1:
 RMSU=  5.86D-04    CP:  9.72D-01  1.68D+00  8.25D-01
 E= -1725.41606919634     Delta-E=       -0.037031336563 Rises=F Damp=F
 DIIS: error= 8.42D-03 at cycle   4 NSaved=   4.
 NSaved= 4 IEnMin= 4 EnMin= -1725.41606919634     IErMin= 4 ErrMin= 8.42D-03
 ErrMax= 8.42D-03  0.00D+00 EMaxC= 1.00D-01 BMatC= 1.17D-02 BMatP= 4.13D-02
 IDIUse=3 WtCom= 9.16D-01 WtEn= 8.42D-02
 Coeff-Com:  0.881D-01-0.580D-01 0.460D+00 0.510D+00
 Coeff-En:   0.000D+00 0.000D+00 0.173D+00 0.827D+00
 Coeff:      0.806D-01-0.531D-01 0.436D+00 0.537D+00
 Gap=     0.148 Goal=   None    Shift=    0.000
 RMSDP=4.28D-04 MaxDP=3.99D-02 DE=-3.70D-02 OVMax= 5.18D-02

 Cycle   5  Pass 0  IDiag  1:
 RMSU=  1.79D-04    CP:  9.71D-01  1.69D+00  8.97D-01  3.61D-01
 E= -1725.42692327904     Delta-E=       -0.010854082709 Rises=F Damp=F
 DIIS: error= 4.12D-03 at cycle   5 NSaved=   5.
 NSaved= 5 IEnMin= 5 EnMin= -1725.42692327904     IErMin= 5 ErrMin= 4.12D-03
 ErrMax= 4.12D-03  0.00D+00 EMaxC= 1.00D-01 BMatC= 1.78D-03 BMatP= 1.17D-02
 IDIUse=3 WtCom= 9.59D-01 WtEn= 4.12D-02
 Coeff-Com:  0.614D-01-0.648D-01 0.253D+00 0.366D+00 0.385D+00
 Coeff-En:   0.000D+00 0.000D+00 0.000D+00 0.139D+00 0.861D+00
 Coeff:      0.589D-01-0.621D-01 0.242D+00 0.357D+00 0.404D+00
 Gap=     0.150 Goal=   None    Shift=    0.000
 RMSDP=1.47D-04 MaxDP=1.25D-02 DE=-1.09D-02 OVMax= 1.92D-02

 Cycle   6  Pass 0  IDiag  1:
 RMSU=  5.38D-05    CP:  9.71D-01  1.69D+00  8.92D-01  5.32D-01  4.80D-01
 E= -1725.42887096162     Delta-E=       -0.001947682579 Rises=F Damp=F
 DIIS: error= 7.98D-04 at cycle   6 NSaved=   6.
 NSaved= 6 IEnMin= 6 EnMin= -1725.42887096162     IErMin= 6 ErrMin= 7.98D-04
 ErrMax= 7.98D-04  0.00D+00 EMaxC= 1.00D-01 BMatC= 8.18D-05 BMatP= 1.78D-03
 IDIUse=3 WtCom= 9.92D-01 WtEn= 7.98D-03
 Coeff-Com:  0.239D-01-0.301D-01 0.794D-01 0.130D+00 0.228D+00 0.569D+00
 Coeff-En:   0.000D+00 0.000D+00 0.000D+00 0.000D+00 0.000D+00 0.100D+01
 Coeff:      0.237D-01-0.299D-01 0.787D-01 0.129D+00 0.226D+00 0.572D+00
 Gap=     0.150 Goal=   None    Shift=    0.000
 RMSDP=3.50D-05 MaxDP=2.92D-03 DE=-1.95D-03 OVMax= 3.72D-03

 Cycle   7  Pass 0  IDiag  1:
 RMSU=  2.18D-05    CP:  9.71D-01  1.69D+00  9.00D-01  5.12D-01  5.40D-01
                    CP:  6.26D-01
 E= -1725.42895219411     Delta-E=       -0.000081232490 Rises=F Damp=F
 DIIS: error= 1.53D-04 at cycle   7 NSaved=   7.
 NSaved= 7 IEnMin= 7 EnMin= -1725.42895219411     IErMin= 7 ErrMin= 1.53D-04
 ErrMax= 1.53D-04  0.00D+00 EMaxC= 1.00D-01 BMatC= 8.39D-06 BMatP= 8.18D-05
 IDIUse=3 WtCom= 9.98D-01 WtEn= 1.53D-03
 Coeff-Com:  0.462D-02-0.651D-02 0.115D-01 0.237D-01 0.736D-01 0.328D+00
 Coeff-Com:  0.565D+00
 Coeff-En:   0.000D+00 0.000D+00 0.000D+00 0.000D+00 0.000D+00 0.765D-01
 Coeff-En:   0.923D+00
 Coeff:      0.461D-02-0.650D-02 0.115D-01 0.237D-01 0.735D-01 0.328D+00
 Coeff:      0.565D+00
 Gap=     0.150 Goal=   None    Shift=    0.000
 RMSDP=1.05D-05 MaxDP=1.20D-03 DE=-8.12D-05 OVMax= 1.24D-03

 Cycle   8  Pass 0  IDiag  1:
 RMSU=  7.00D-06    CP:  9.71D-01  1.69D+00  9.00D-01  5.14D-01  5.26D-01
                    CP:  6.88D-01  6.95D-01
 E= -1725.42896069190     Delta-E=       -0.000008497788 Rises=F Damp=F
 DIIS: error= 5.10D-05 at cycle   8 NSaved=   8.
 NSaved= 8 IEnMin= 8 EnMin= -1725.42896069190     IErMin= 8 ErrMin= 5.10D-05
 ErrMax= 5.10D-05  0.00D+00 EMaxC= 1.00D-01 BMatC= 1.07D-06 BMatP= 8.39D-06
 IDIUse=1 WtCom= 1.00D+00 WtEn= 0.00D+00
 Coeff-Com:  0.906D-03-0.151D-02 0.743D-03 0.398D-02 0.265D-01 0.154D+00
 Coeff-Com:  0.349D+00 0.466D+00
 Coeff:      0.906D-03-0.151D-02 0.743D-03 0.398D-02 0.265D-01 0.154D+00
 Coeff:      0.349D+00 0.466D+00
 Gap=     0.150 Goal=   None    Shift=    0.000
 RMSDP=3.62D-06 MaxDP=3.16D-04 DE=-8.50D-06 OVMax= 4.08D-04

 Initial convergence to 1.0D-05 achieved.  Increase integral accuracy.
 Cycle   9  Pass 1  IDiag  1:
 E= -1725.42881074623     Delta-E=        0.000149945667 Rises=F Damp=F
 DIIS: error= 3.78D-04 at cycle   1 NSaved=   1.
 NSaved= 1 IEnMin= 1 EnMin= -1725.42881074623     IErMin= 1 ErrMin= 3.78D-04
 ErrMax= 3.78D-04  0.00D+00 EMaxC= 1.00D-01 BMatC= 1.20D-05 BMatP= 1.20D-05
 IDIUse=3 WtCom= 9.96D-01 WtEn= 3.78D-03
 Coeff-Com:  0.100D+01
 Coeff-En:   0.100D+01
 Coeff:      0.100D+01
 Gap=     0.150 Goal=   None    Shift=    0.000
 RMSDP=3.62D-06 MaxDP=3.16D-04 DE= 1.50D-04 OVMax= 7.11D-04

 Cycle  10  Pass 1  IDiag  1:
 RMSU=  1.26D-04    CP:  1.00D+00
 E= -1725.42882896160     Delta-E=       -0.000018215364 Rises=F Damp=F
 DIIS: error= 3.04D-05 at cycle   2 NSaved=   2.
 NSaved= 2 IEnMin= 2 EnMin= -1725.42882896160     IErMin= 2 ErrMin= 3.04D-05
 ErrMax= 3.04D-05  0.00D+00 EMaxC= 1.00D-01 BMatC= 1.85D-07 BMatP= 1.20D-05
 IDIUse=1 WtCom= 1.00D+00 WtEn= 0.00D+00
 Coeff-Com:  0.109D-01 0.989D+00
 Coeff:      0.109D-01 0.989D+00
 Gap=     0.150 Goal=   None    Shift=    0.000
 RMSDP=4.40D-06 MaxDP=3.80D-04 DE=-1.82D-05 OVMax= 5.83D-04

 Cycle  11  Pass 1  IDiag  1:
 RMSU=  3.87D-06    CP:  1.00D+00  1.02D+00
 E= -1725.42882828898     Delta-E=        0.000000672615 Rises=F Damp=F
 DIIS: error= 6.60D-05 at cycle   3 NSaved=   3.
 NSaved= 3 IEnMin= 2 EnMin= -1725.42882896160     IErMin= 2 ErrMin= 3.04D-05
 ErrMax= 6.60D-05  0.00D+00 EMaxC= 1.00D-01 BMatC= 7.50D-07 BMatP= 1.85D-07
 IDIUse=1 WtCom= 1.00D+00 WtEn= 0.00D+00
 Coeff-Com: -0.782D-02 0.674D+00 0.333D+00
 Coeff:     -0.782D-02 0.674D+00 0.333D+00
 Gap=     0.150 Goal=   None    Shift=    0.000
 RMSDP=2.61D-06 MaxDP=2.65D-04 DE= 6.73D-07 OVMax= 4.16D-04

 Cycle  12  Pass 1  IDiag  1:
 RMSU=  5.80D-07    CP:  1.00D+00  1.02D+00  3.41D-01
 E= -1725.42882917828     Delta-E=       -0.000000889292 Rises=F Damp=F
 DIIS: error= 3.17D-06 at cycle   4 NSaved=   4.
 NSaved= 4 IEnMin= 4 EnMin= -1725.42882917828     IErMin= 4 ErrMin= 3.17D-06
 ErrMax= 3.17D-06  0.00D+00 EMaxC= 1.00D-01 BMatC= 4.00D-09 BMatP= 1.85D-07
 IDIUse=1 WtCom= 1.00D+00 WtEn= 0.00D+00
 Coeff-Com: -0.459D-02 0.372D+00 0.191D+00 0.442D+00
 Coeff:     -0.459D-02 0.372D+00 0.191D+00 0.442D+00
 Gap=     0.150 Goal=   None    Shift=    0.000
 RMSDP=2.34D-07 MaxDP=1.69D-05 DE=-8.89D-07 OVMax= 2.39D-05

 Cycle  13  Pass 1  IDiag  1:
 RMSU=  1.97D-07    CP:  1.00D+00  1.02D+00  3.53D-01  7.99D-01
 E= -1725.42882918265     Delta-E=       -0.000000004378 Rises=F Damp=F
 DIIS: error= 8.43D-07 at cycle   5 NSaved=   5.
 NSaved= 5 IEnMin= 5 EnMin= -1725.42882918265     IErMin= 5 ErrMin= 8.43D-07
 ErrMax= 8.43D-07  0.00D+00 EMaxC= 1.00D-01 BMatC= 1.82D-10 BMatP= 4.00D-09
 IDIUse=1 WtCom= 1.00D+00 WtEn= 0.00D+00
 Coeff-Com: -0.145D-02 0.113D+00 0.593D-01 0.214D+00 0.615D+00
 Coeff:     -0.145D-02 0.113D+00 0.593D-01 0.214D+00 0.615D+00
 Gap=     0.150 Goal=   None    Shift=    0.000
 RMSDP=6.84D-08 MaxDP=4.67D-06 DE=-4.38D-09 OVMax= 6.32D-06

 Cycle  14  Pass 1  IDiag  1:
 RMSU=  5.64D-08    CP:  1.00D+00  1.02D+00  3.54D-01  8.21D-01  8.17D-01
 E= -1725.42882918277     Delta-E=       -0.000000000112 Rises=F Damp=F
 DIIS: error= 7.74D-07 at cycle   6 NSaved=   6.
 NSaved= 6 IEnMin= 6 EnMin= -1725.42882918277     IErMin= 6 ErrMin= 7.74D-07
 ErrMax= 7.74D-07  0.00D+00 EMaxC= 1.00D-01 BMatC= 6.63D-11 BMatP= 1.82D-10
 IDIUse=1 WtCom= 1.00D+00 WtEn= 0.00D+00
 Coeff-Com: -0.292D-03 0.211D-01 0.116D-01 0.778D-01 0.413D+00 0.477D+00
 Coeff:     -0.292D-03 0.211D-01 0.116D-01 0.778D-01 0.413D+00 0.477D+00
 Gap=     0.150 Goal=   None    Shift=    0.000
 RMSDP=3.06D-08 MaxDP=2.64D-06 DE=-1.12D-10 OVMax= 4.06D-06

 Cycle  15  Pass 1  IDiag  1:
 RMSU=  2.04D-08    CP:  1.00D+00  1.02D+00  3.54D-01  8.23D-01  8.77D-01
                    CP:  6.59D-01
[...]
    71  H    0.232791
    72  H    0.232134
    73  H    0.222251
    74  C   -0.966349
    75  H    0.222200
    76  H    0.231292
    77  H    0.231980
    78  Sn   1.199924
    79  C   -0.967655
    80  H    0.231868
    81  H    0.222299
    82  H    0.231612
    83  C   -0.966854
    84  H    0.222152
    85  H    0.232626
    86  H    0.231815
    87  C   -0.986211
    88  H    0.231081
    89  H    0.231236
    90  H    0.229245
 Sum of Mulliken charges =  -0.00000
 Mulliken charges with hydrogens summed into heavy atoms:
               1
     1  C   -0.257018
     2  C    0.355158
     3  C    0.043243
     4  C   -0.568305
     5  S    0.214499
     6  O   -0.317507
     8  C   -0.248278
     9  C    0.365455
    10  C    0.041978
    11  C   -0.567626
    12  S    0.215273
    13  O   -0.316626
    15  C    0.172290
    18  C    0.165900
    21  O   -0.336057
    22  C    0.171856
    25  C    0.168901
    28  O   -0.339169
    29  C    0.180698
    32  C    0.153087
    35  O   -0.325177
    36  C    0.164720
    40  C    0.172237
    43  C    0.166015
    46  O   -0.336063
    47  C    0.171898
    50  C    0.168859
    53  O   -0.339158
    54  C    0.180679
    57  C    0.153090
    60  O   -0.325182
    61  C    0.164704
    65  Sn   1.199261
    66  C   -0.294733
    70  C   -0.281165
    74  C   -0.280878
    78  Sn   1.199924
    79  C   -0.281876
    83  C   -0.280261
    87  C   -0.294649
 Electronic spatial extent (au):  <R**2>=          66345.5740
 Charge=              0.0000 electrons
 Dipole moment (field-independent basis, Debye):
    X=              0.0428    Y=              0.0381    Z=              1.0344  Tot=              1.0359
 Quadrupole moment (field-independent basis, Debye-Ang):
   XX=           -236.9936   YY=           -250.0317   ZZ=           -274.6500
   XY=             26.3560   XZ=             -0.2137   YZ=              0.0126
 Traceless Quadrupole moment (field-independent basis, Debye-Ang):
   XX=             16.8982   YY=              3.8600   ZZ=            -20.7582
   XY=             26.3560   XZ=             -0.2137   YZ=              0.0126
 Octapole moment (field-independent basis, Debye-Ang**2):
  XXX=             -5.5826  YYY=             -5.3403  ZZZ=           -116.3178  XYY=              6.0996
  XXY=              1.9737  XXZ=            141.9289  XZZ=             -0.0681  YZZ=             -0.1191
  YYZ=           -100.2753  XYZ=            102.3566
 Hexadecapole moment (field-independent basis, Debye-Ang**3):
 XXXX=         -55605.7681 YYYY=         -16414.5444 ZZZZ=          -6129.0274 XXXY=           5979.7616
 XXXZ=            -66.9624 YYYX=            348.9521 YYYZ=            -11.9029 ZZZX=            -12.5169
 ZZZY=             -6.3325 XXYY=         -14159.9500 XXZZ=         -10972.8987 YYZZ=          -3949.0968
 XXYZ=             14.2478 YYXZ=             14.7646 ZZXY=            435.9348
 N-N= 3.795285226871D+03 E-N=-1.160350461059D+04  KE= 1.698578349629D+03
 No NMR shielding tensors so no spin-rotation constants.
 Leave Link  601 at Tue Mar  3 13:07:36 2020, MaxMem=  6710886400 cpu:               2.6 elap:               0.4
 (Enter /apps/gaussian/g16-a03/l602.exe)
 FitSet:  NAtFit=    90 NAtPot=    90 NAtFrz=     0 MDM=    94 TotChg=   0.00000
 UFF atomic radii scaled by 1 / 1.20 used.

 **********************************************************************

            Electrostatic Properties Using The SCF Density

 **********************************************************************

       Atomic Center    1 is at   0.133963 -0.728407 -0.808409
       Atomic Center    2 is at   1.345740 -1.348800 -0.526029
       Atomic Center    3 is at   1.345804 -2.782545 -0.681416
       Atomic Center    4 is at   0.144948 -3.321864 -1.111657
       Atomic Center    5 is at  -1.066157 -1.993526 -1.344212
       Atomic Center    6 is at   2.443477 -0.581226 -0.134651
       Atomic Center    7 is at   2.216576 -3.394268 -0.471603
       Atomic Center    8 is at  -0.173756  0.682061 -0.865923
       Atomic Center    9 is at  -1.368861  1.322992 -0.560097
       Atomic Center   10 is at  -1.347711  2.755901 -0.718813
       Atomic Center   11 is at  -0.135305  3.276007 -1.140943
       Atomic Center   12 is at   1.059927  1.930165 -1.356751
       Atomic Center   13 is at  -2.470731  0.571564 -0.150072
       Atomic Center   14 is at  -2.210237  3.381202 -0.515002
       Atomic Center   15 is at   3.681277 -1.274547  0.215683
       Atomic Center   16 is at   4.070990 -1.830094 -0.648351
       Atomic Center   17 is at   3.510772 -1.970992  1.048086
       Atomic Center   18 is at   4.665352 -0.186473  0.629567
       Atomic Center   19 is at   4.822628  0.520600 -0.199455
       Atomic Center   20 is at   4.277638  0.369622  1.496880
       Atomic Center   21 is at   5.904245 -0.875030  0.966143
       Atomic Center   22 is at   6.973750  0.020354  1.392185
       Atomic Center   23 is at   7.220125  0.737715  0.593858
       Atomic Center   24 is at   6.673840  0.583425  2.289733
       Atomic Center   25 is at   8.180323 -0.859094  1.700707
       Atomic Center   26 is at   8.478581 -1.423250  0.802898
       Atomic Center   27 is at   7.933106 -1.576747  2.498923
       Atomic Center   28 is at   9.248706  0.036113  2.125330
       Atomic Center   29 is at  10.488189 -0.654938  2.461834
       Atomic Center   30 is at  10.870870 -1.211819  1.592165
       Atomic Center   31 is at  10.325190 -1.364790  3.287922
       Atomic Center   32 is at  11.488967  0.416292  2.880515
       Atomic Center   33 is at  11.106781  0.973648  3.750923
       Atomic Center   34 is at  11.652823  1.126680  2.054182
       Atomic Center   35 is at  12.723078 -0.282297  3.214653
       Atomic Center   36 is at  13.792660  0.604610  3.638773
       Atomic Center   37 is at  13.512171  1.166846  4.544400
       Atomic Center   38 is at  14.654455 -0.031065  3.858817
       Atomic Center   39 is at  14.059414  1.320091  2.843868
       Atomic Center   40 is at  -3.703261  1.280956  0.186234
       Atomic Center   41 is at  -4.085750  1.826502 -0.687352
       Atomic Center   42 is at  -3.528942  1.988677  1.008292
       Atomic Center   43 is at  -4.697603  0.208007  0.614707
       Atomic Center   44 is at  -4.861910 -0.508689 -0.204625
       Atomic Center   45 is at  -4.314766 -0.339980  1.489325
       Atomic Center   46 is at  -5.929792  0.912721  0.942369
       Atomic Center   47 is at  -7.007779  0.033178  1.379851
       Atomic Center   48 is at  -7.261341 -0.691769  0.590680
       Atomic Center   49 is at  -6.713050 -0.521427  2.284361
       Atomic Center   50 is at  -8.205684  0.928083  1.677507
       Atomic Center   51 is at  -8.498682  1.483837  0.772752
       Atomic Center   52 is at  -7.951313  1.653228  2.466656
       Atomic Center   53 is at  -9.282613  0.048678  2.113426
       Atomic Center   54 is at -10.515166  0.755891  2.441662
       Atomic Center   55 is at -10.892624  1.305849  1.565328
       Atomic Center   56 is at -10.345005  1.474133  3.259011
       Atomic Center   57 is at -11.526257 -0.300314  2.873536
       Atomic Center   58 is at -11.149233 -0.850796  3.750544
       Atomic Center   59 is at -11.697361 -1.019025  2.055916
       Atomic Center   60 is at -12.753349  0.414331  3.199485
       Atomic Center   61 is at -13.831392 -0.456853  3.634618
       Atomic Center   62 is at -13.556060 -1.010805  4.546908
       Atomic Center   63 is at -14.686834  0.189852  3.847191
       Atomic Center   64 is at -14.105465 -1.179263  2.848517
       Atomic Center   65 is at  -0.315895 -5.378712 -1.427728
       Atomic Center   66 is at   1.492899 -6.458716 -1.038752
       Atomic Center   67 is at   1.824148 -6.305696 -0.003882
       Atomic Center   68 is at   1.335745 -7.534254 -1.190828
       Atomic Center   69 is at   2.294670 -6.132400 -1.713052
       Atomic Center   70 is at  -0.959570 -5.650267 -3.451915
       Atomic Center   71 is at  -1.863901 -5.061514 -3.651067
       Atomic Center   72 is at  -0.179015 -5.324460 -4.150455
       Atomic Center   73 is at  -1.185027 -6.706183 -3.650016
       Atomic Center   74 is at  -1.872738 -5.968687 -0.080255
       Atomic Center   75 is at  -2.122543 -7.029122 -0.214969
       Atomic Center   76 is at  -1.559656 -5.814225  0.959693
       Atomic Center   77 is at  -2.778753 -5.375391 -0.256684
       Atomic Center   78 is at   0.353282  5.323243 -1.476845
       Atomic Center   79 is at   1.973158  5.879359 -0.190848
       Atomic Center   80 is at   2.859946  5.269031 -0.403380
       Atomic Center   81 is at   2.238381  6.934947 -0.333791
       Atomic Center   82 is at   1.698113  5.728917  0.860378
       Atomic Center   83 is at   0.922926  5.585018 -3.524560
       Atomic Center   84 is at   1.161620  6.636516 -3.730572
       Atomic Center   85 is at   1.806678  4.978338 -3.759015
       Atomic Center   86 is at   0.109256  5.275893 -4.192224
       Atomic Center   87 is at  -1.417235  6.439114 -1.019280
       Atomic Center   88 is at  -2.248382  6.136150 -1.668487
       Atomic Center   89 is at  -1.716664  6.284608  0.024984
       Atomic Center   90 is at  -1.241637  7.512171 -1.168695
    3898 points will be used for fitting atomic charges
 Fitting point charges to electrostatic potential
 Charges from ESP fit, RMS=   0.00221 RRMS=   0.19695:
 ESP charges:
               1
     1  C   -0.177967
     2  C    0.623083
     3  C   -0.334811
     4  C   -0.365301
     5  S   -0.028692
     6  O   -0.704927
     7  H    0.138998
     8  C    0.006060
     9  C    0.490275
    10  C   -0.282592
    11  C   -0.407769
    12  S   -0.046874
    13  O   -0.705644
    14  H    0.134097
    15  C    0.436043
    16  H    0.023980
    17  H    0.009056
    18  C    0.263164
    19  H    0.045534
    20  H    0.035165
    21  O   -0.768663
    22  C    0.356830
    23  H    0.005593
    24  H    0.008211
    25  C    0.423986
    26  H   -0.001144
    27  H    0.003495
    28  O   -0.730463
    29  C    0.185675
    30  H    0.038670
    31  H    0.035428
    32  C    0.325299
    33  H    0.033633
    34  H    0.034132
    35  O   -0.524955
    36  C   -0.106115
    37  H    0.084331
    38  H    0.135859
    39  H    0.086802
    40  C    0.623740
    41  H   -0.017675
    42  H   -0.026083
    43  C    0.138003
    44  H    0.057960
    45  H    0.053662
    46  O   -0.775434
    47  C    0.434513
    48  H   -0.003033
    49  H   -0.001353
    50  C    0.353403
    51  H    0.010958
    52  H    0.013854
    53  O   -0.733363
    54  C    0.280026
    55  H    0.023210
    56  H    0.021834
    57  C    0.206530
    58  H    0.057904
    59  H    0.057404
    60  O   -0.510449
    61  C   -0.074937
    62  H    0.079947
    63  H    0.124198
    64  H    0.082027
    65  Sn   1.196448
    66  C   -0.850692
    67  H    0.192599
    68  H    0.185133
    69  H    0.193964
    70  C   -0.787986
    71  H    0.185158
    72  H    0.168765
    73  H    0.165193
    74  C   -0.815386
    75  H    0.177728
    76  H    0.176919
    77  H    0.179993
    78  Sn   1.205529
    79  C   -0.830643
    80  H    0.185281
    81  H    0.180879
    82  H    0.181556
    83  C   -0.805622
    84  H    0.168720
    85  H    0.192643
    86  H    0.173411
    87  C   -0.812101
    88  H    0.182386
    89  H    0.182369
    90  H    0.173425
 Sum of ESP charges =   0.00000
 ESP charges with hydrogens summed into heavy atoms:
               1
     1  C   -0.177967
     2  C    0.623083
     3  C   -0.195813
     4  C   -0.365301
     5  S   -0.028692
     6  O   -0.704927
     8  C    0.006060
     9  C    0.490275
    10  C   -0.148495
    11  C   -0.407769
    12  S   -0.046874
    13  O   -0.705644
    15  C    0.469079
    18  C    0.343863
    21  O   -0.768663
    22  C    0.370634
    25  C    0.426337
    28  O   -0.730463
    29  C    0.259773
    32  C    0.393064
    35  O   -0.524955
    36  C    0.200877
    40  C    0.579983
    43  C    0.249626
    46  O   -0.775434
    47  C    0.430128
    50  C    0.378215
    53  O   -0.733363
    54  C    0.325070
    57  C    0.321838
    60  O   -0.510449
    61  C    0.211235
    65  Sn   1.196448
    66  C   -0.278996
    70  C   -0.268870
    74  C   -0.280746
    78  Sn   1.205529
    79  C   -0.282928
    83  C   -0.270848
    87  C   -0.273921
 Charge=   0.00000 Dipole=     0.0269     0.0574     0.9457 Tot=     0.9478
 -----------------------------------------------------------------

              Electrostatic Properties (Atomic Units)

 -----------------------------------------------------------------
    Center     Electric         -------- Electric Field --------
               Potential          X             Y             Z
 -----------------------------------------------------------------
    1 Atom    -14.732354
    2 Atom    -14.694872
    3 Atom    -14.754257
    4 Atom    -14.757743
    5 Atom     -3.654640
    6 Atom    -22.327300
    7 Atom     -1.087823
    8 Atom    -14.732667
    9 Atom    -14.695136
   10 Atom    -14.754266
   11 Atom    -14.757712
   12 Atom     -3.654298
   13 Atom    -22.327381
   14 Atom     -1.087849
   15 Atom    -14.699893
   16 Atom     -1.101015
   17 Atom     -1.100712
   18 Atom    -14.706704
   19 Atom     -1.107905
   20 Atom     -1.107979
   21 Atom    -22.347769
   22 Atom    -14.708893
   23 Atom     -1.109634
   24 Atom     -1.109655
   25 Atom    -14.709790
   26 Atom     -1.110629
   27 Atom     -1.110621
   28 Atom    -22.351017
   29 Atom    -14.711644
   30 Atom     -1.112388
   31 Atom     -1.112389
   32 Atom    -14.711979
   33 Atom     -1.112483
   34 Atom     -1.112479
   35 Atom    -22.352977
   36 Atom    -14.715020
   37 Atom     -1.105451
   38 Atom     -1.103055
   39 Atom     -1.105450
   40 Atom    -14.700047
   41 Atom     -1.101101
   42 Atom     -1.100888
   43 Atom    -14.706849
   44 Atom     -1.108050
   45 Atom     -1.108126
   46 Atom    -22.347886
   47 Atom    -14.709004
   48 Atom     -1.109748
   49 Atom     -1.109765
   50 Atom    -14.709875
   51 Atom     -1.110713
   52 Atom     -1.110703
   53 Atom    -22.351093
   54 Atom    -14.711708
   55 Atom     -1.112450
   56 Atom     -1.112454
   57 Atom    -14.712038
   58 Atom     -1.112542
   59 Atom     -1.112538
   60 Atom    -22.353028
   61 Atom    -14.715066
   62 Atom     -1.105498
   63 Atom     -1.103101
   64 Atom     -1.105498
   65 Atom     -1.623107
   66 Atom    -14.784437
   67 Atom     -1.107485
   68 Atom     -1.106867
   69 Atom     -1.107591
   70 Atom    -14.788527
   71 Atom     -1.111588
   72 Atom     -1.112471
   73 Atom     -1.110836
   74 Atom    -14.788278
   75 Atom     -1.110629
   76 Atom     -1.112225
   77 Atom     -1.111436
   78 Atom     -1.623040
   79 Atom    -14.788088
   80 Atom     -1.111175
   81 Atom     -1.110466
   82 Atom     -1.112070
   83 Atom    -14.788556
   84 Atom     -1.110851
   85 Atom     -1.111663
   86 Atom     -1.112465
   87 Atom    -14.784389
   88 Atom     -1.107462
   89 Atom     -1.107527
   90 Atom     -1.106815
 -----------------------------------------------------------------
 Leave Link  602 at Tue Mar  3 13:07:36 2020, MaxMem=  6710886400 cpu:               2.7 elap:               0.4
 (Enter /apps/gaussian/g16-a03/l9999.exe)
 1\1\GINC-CX1-141-15-1\FOpt\RB3LYP\LANL2DZ\C28H50O8S2Sn2\NS5018\03-Mar-
 2020\0\\#p opt=modredundant pop=MKUFF b3lyp/lanl2dz\\O3G_1m_0sc_Sn_pop
 .gjf\\0,1\C,0.1331524417,0.6917660182,-0.180629064\C,1.3554269568,1.30
 35477079,-0.4351815288\C,1.3674890684,2.7348931854,-0.259468277\C,0.16
 54879882,3.2804595231,0.1595522914\S,-1.0624636062,1.9615322786,0.3542
 486469\O,2.4514133683,0.530278343,-0.8202029611\H,2.247585359,3.340500
 2837,-0.4469267155\C,-0.1896364242,-0.7161256863,-0.1479718499\C,-1.38
 61637785,-1.3403547468,-0.4815245122\C,-1.3819647881,-2.7754932325,-0.
 3428617469\C,-0.181677291,-3.3139359373,0.0907516788\S,1.0235032273,-1
 .9836397976,0.3443194678\O,-2.473794618,-0.5719339797,-0.8980214058\H,
 -2.2474244623,-3.3889525528,-0.5689987452\C,3.7015143091,1.2156631081,
 -1.1412519175\H,4.0831191416,1.7549793272,-0.263425588\H,3.5511981122,
 1.9254465418,-1.9662450524\C,4.680983661,0.1234281775,-1.5551020054\H,
 4.8180196012,-0.5967976862,-0.7338469597\H,4.3014238459,-0.416410181,-
 2.4361836443\O,5.9319123688,0.8038453834,-1.8624471903\C,6.9989304388,
 -0.096436833,-2.2843798756\H,7.2254308458,-0.8274369854,-1.4925646022\
 H,6.7075665596,-0.6437308058,-3.1944155828\C,8.2190256829,0.7747807359
 ,-2.5614713165\H,8.5087456859,1.3231732062,-1.6511860671\H,7.991685391
 3,1.5060793,-3.3531848353\O,9.2849018077,-0.1253338873,-2.9820018702\C
 ,10.5364445465,0.5575695945,-3.2892294147\H,10.9109423596,1.0982137765
 ,-2.4058605437\H,10.3936686604,1.2805923157,-4.1076023592\C,11.5328587
 956,-0.5179279093,-3.7073754482\H,11.158862269,-1.0590409984,-4.591482
 416\H,11.6764823956,-1.2414986154,-2.8887524267\O,12.7790694617,0.1725
 350504,-4.0122151835\C,13.8462194208,-0.7193005093,-4.4321060033\H,13.
 5744091975,-1.2658460927,-5.349901649\H,14.7177434787,-0.0895088495,-4
 .6295935295\H,14.093168013,-1.448581526,-3.6433663906\C,-3.7079491846,
 -1.2638000602,-1.2636057653\H,-4.109659453,-1.8175899387,-0.4039447002
 \H,-3.5278173936,-1.9616672523,-2.0928039954\C,-4.6845395082,-0.174755
 9009,-1.6922987435\H,-4.8545281326,0.5320201354,-0.8655424024\H,-4.282
 4406738,0.3814855609,-2.5529513798\O,-5.9184428894,-0.8620700267,-2.04
 91688877\C,-6.9804696864,0.0345869839,-2.4909238828\H,-7.2391385939,0.
 7509550636,-1.6956004457\H,-6.6659247884,0.5987714048,-3.3827465588\C,
 -8.1824858157,-0.843664255,-2.8199598684\H,-8.4953153674,-1.409019678,
 -1.9278814026\H,-7.9230107559,-1.5602393411,-3.6152512757\O,-9.2434815
 008,0.0528215039,-3.2601379637\C,-10.477764718,-0.6369799989,-3.617622
 4558\H,-10.8745326527,-1.1952705012,-2.7551982865\H,-10.3019704574,-1.
 3453891656,-4.4423268544\C,-11.4712154987,0.4355444063,-4.0502161236\H
 ,-11.0748654127,0.9943734144,-4.9133136415\H,-11.6479525604,1.14442857
 89,-3.2252487937\O,-12.7001500841,-0.2617757631,-4.4054349073\C,-13.76
 23548147,0.6264898756,-4.8449607384\H,-13.4670872265,1.1903313777,-5.7
 448737005\H,-14.6208092064,-0.0083201727,-5.0800508952\H,-14.041507692
 7,1.340576002,-4.0530632516\Sn,-0.2795339819,5.3373042637,0.4975537201
 \C,1.5459685403,6.403974041,0.1522940124\H,1.8919533447,6.2620960188,-
 0.8793367623\H,1.3972811136,7.4788324363,0.3171523823\H,2.3336659284,6
 .0599810793,0.8343506623\C,-0.952311472,5.5870265741,2.5150777448\H,-1
 .8655614066,5.0048820187,2.6916792585\H,-0.1862042198,5.2434209846,3.2
 210437038\H,-1.170213349,6.6423239375,2.7246032482\C,-1.8088870551,5.9
 621463882,-0.865591388\H,-2.0500870148,7.0231021531,-0.7197561627\H,-1
 .481000765,5.8190843634,-1.9026038673\H,-2.7235077579,5.3757957908,-0.
 7117992327\Sn,0.28088831,-5.3706109711,0.4051483326\C,1.9151754351,-5.
 9252718279,-0.8631215973\H,2.8046039501,-5.3271548242,-0.6280993047\H,
 2.1674566014,-6.9854380561,-0.7310526195\H,1.6582888274,-5.7572586009,
 -1.9162783607\C,0.8154699506,-5.6669653719,2.4575990859\H,1.0402725153
 ,-6.7236549887,2.6523667389\H,1.7014802227,-5.07277226,2.7144405493\H,
 -0.0054807733,-5.3588804692,3.11677682\C,-1.4933415634,-6.4616501634,-
 0.0958543086\H,-2.3315379973,-6.1592860134,0.5445097924\H,-1.774677157
 2,-6.2894208972,-1.1423751824\H,-1.3309485499,-7.538451493,0.041035488
 4\\Version=ES64L-G16RevA.03\State=1-A\HF=-1725.4794803\RMSD=5.017e-09\
 RMSF=5.841e-04\Dipole=0.0231218,-0.0094456,-0.4068064\Quadrupole=12.15
 54895,3.2706724,-15.4261618,-19.6928569,0.3179928,-0.0405013\PG=C01 [X
 (C28H50O8S2Sn2)]\\@


 IF I HAVE SEEN FARTHER, IT IS BY STANDING ON THE
 SHOULDERS OF GIANTS. -- SIR ISAAC NEWTON
 Job cpu time:       0 days  9 hours 57 minutes 59.3 seconds.
 Elapsed time:       0 days  1 hours 16 minutes 11.7 seconds.
 File lengths (MBytes):  RWF=    139 Int=      0 D2E=      0 Chk=     21 Scr=      1
 Normal termination of Gaussian 16 at Tue Mar  3 13:07:37 2020.
