 Entering Gaussian System, Link 0=g16
 Input=GS_50.gjf
 Output=GS_50.log
 Initial command:
 /apps/gaussian/g16-a03/l1.exe "/tmp/pbs.1165169[5].pbs/Gau-14648.inp" -scrdir="/tmp/pbs.1165169[5].pbs/"
 Entering Link 1 = /apps/gaussian/g16-a03/l1.exe PID=     14649.
  
 Copyright (c) 1988,1990,1992,1993,1995,1998,2003,2009,2016,
            Gaussian, Inc.  All Rights Reserved.
  
 This is part of the Gaussian(R) 16 program.  It is based on
 the Gaussian(R) 09 system (copyright 2009, Gaussian, Inc.),
 the Gaussian(R) 03 system (copyright 2003, Gaussian, Inc.),
 the Gaussian(R) 98 system (copyright 1998, Gaussian, Inc.),
 the Gaussian(R) 94 system (copyright 1995, Gaussian, Inc.),
 the Gaussian 92(TM) system (copyright 1992, Gaussian, Inc.),
 the Gaussian 90(TM) system (copyright 1990, Gaussian, Inc.),
 the Gaussian 88(TM) system (copyright 1988, Gaussian, Inc.),
 the Gaussian 86(TM) system (copyright 1986, Carnegie Mellon
 University), and the Gaussian 82(TM) system (copyright 1983,
 Carnegie Mellon University). Gaussian is a federally registered
 trademark of Gaussian, Inc.
  
 This software contains proprietary and confidential information,
 including trade secrets, belonging to Gaussian, Inc.
  
 This software is provided under written license and may be
 used, copied, transmitted, or stored only in accord with that
 written license.
  
 The following legend is applicable only to US Government
 contracts under FAR:
  
                    RESTRICTED RIGHTS LEGEND
  
 Use, reproduction and disclosure by the US Government is
 subject to restrictions as set forth in subparagraphs (a)
 and (c) of the Commercial Computer Software - Restricted
 Rights clause in FAR 52.227-19.
  
 Gaussian, Inc.
 340 Quinnipiac St., Bldg. 40, Wallingford CT 06492
  
  
 ---------------------------------------------------------------
 Warning -- This program may not be used in any manner that
 competes with the business of Gaussian, Inc. or will provide
 assistance to any competitor of Gaussian, Inc.  The licensee
 of this program is prohibited from giving any competitor of
 Gaussian, Inc. access to this program.  By using this program,
 the user acknowledges that Gaussian, Inc. is engaged in the
 business of creating and licensing software in the field of
 computational chemistry and represents and warrants to the
 licensee that it is not a competitor of Gaussian, Inc. and that
 it will not use this program in any manner prohibited above.
 ---------------------------------------------------------------
  

 Cite this work as:
 Gaussian 16, Revision A.03,
 M. J. Frisch, G. W. Trucks, H. B. Schlegel, G. E. Scuseria, 
 M. A. Robb, J. R. Cheeseman, G. Scalmani, V. Barone, 
 G. A. Petersson, H. Nakatsuji, X. Li, M. Caricato, A. V. Marenich, 
 J. Bloino, B. G. Janesko, R. Gomperts, B. Mennucci, H. P. Hratchian, 
 J. V. Ortiz, A. F. Izmaylov, J. L. Sonnenberg, D. Williams-Young, 
 F. Ding, F. Lipparini, F. Egidi, J. Goings, B. Peng, A. Petrone, 
 T. Henderson, D. Ranasinghe, V. G. Zakrzewski, J. Gao, N. Rega, 
 G. Zheng, W. Liang, M. Hada, M. Ehara, K. Toyota, R. Fukuda, 
 J. Hasegawa, M. Ishida, T. Nakajima, Y. Honda, O. Kitao, H. Nakai, 
 T. Vreven, K. Throssell, J. A. Montgomery, Jr., J. E. Peralta, 
 F. Ogliaro, M. J. Bearpark, J. J. Heyd, E. N. Brothers, K. N. Kudin, 
 V. N. Staroverov, T. A. Keith, R. Kobayashi, J. Normand, 
 K. Raghavachari, A. P. Rendell, J. C. Burant, S. S. Iyengar, 
 J. Tomasi, M. Cossi, J. M. Millam, M. Klene, C. Adamo, R. Cammi, 
 J. W. Ochterski, R. L. Martin, K. Morokuma, O. Farkas, 
 J. B. Foresman, and D. J. Fox, Gaussian, Inc., Wallingford CT, 2016.
 
 ******************************************
 Gaussian 16:  ES64L-G16RevA.03 25-Dec-2016
                 3-Mar-2020 
 ******************************************
 %mem=50GB
 %nprocshared=8
 Will use up to    8 processors via shared memory.
 -------------------------------------------
 #p opt=modredundant pop=MKUFF b3lyp/lanl2dz
 -------------------------------------------
 1/18=120,19=15,26=3,38=1/1,3;
 2/9=110,12=2,17=6,18=5,40=1/2;
 3/5=6,6=3,11=2,25=1,30=1,71=1,74=-5/1,2,3;
 4//1;
 5/5=2,38=5/2;
 6/7=2,8=2,9=2,10=2,15=8,20=4,28=1/1,2;
 7//1,2,3,16;
 1/18=20,19=15,26=3/3(2);
 2/9=110/2;
 99//99;
 2/9=110/2;
 3/5=6,6=3,11=2,25=1,30=1,71=1,74=-5/1,2,3;
 4/5=5,16=3,69=1/1;
 5/5=2,38=5/2;
 7//1,2,3,16;
 1/18=20,19=15,26=3/3(-5);
 2/9=110/2;
 6/7=2,8=2,9=2,10=2,15=8,19=2,20=4,28=1/1,2;
 99/9=1/99;
 Leave Link    1 at Tue Mar  3 11:49:18 2020, MaxMem=  6710886400 cpu:               0.2 elap:               0.0
 (Enter /apps/gaussian/g16-a03/l101.exe)
 ---------------------
 O3G_1m_0sc_Sn_pop.gjf
 ---------------------
 Symbolic Z-matrix:
 Charge =  0 Multiplicity = 1
 C                     0.152     0.706    -0.001 
 C                     1.29813   1.3345   -0.46179 
 C                     1.28733   2.75079  -0.31786 
 C                     0.13294   3.20017   0.25248 
 S                    -0.96037   1.9158    0.62482 
 O                     2.30795   0.5883   -0.99426 
 H                     2.09483   3.40089  -0.62107 
 C                    -0.152    -0.706    -0.001 
 C                    -1.29813  -1.3345   -0.46179 
 C                    -1.28824  -2.7508   -0.31828 
 C                    -0.13294  -3.20017   0.25248 
 S                     0.95993  -1.91671   0.62582 
 O                    -2.30754  -0.58839  -0.99517 
 H                    -2.09444  -3.40197  -0.62188 
 C                     3.47231   1.26497  -1.45864 
 H                     3.9532    1.81433  -0.64193 
 H                     3.21737   1.97275  -2.25607 
 C                     4.41831   0.20594  -1.99383 
 H                     4.66864  -0.50871  -1.19718 
 H                     3.93406  -0.35056  -2.80859 
 O                     5.57266   0.8824   -2.45366 
 C                     6.55882   0.01734  -2.98811 
 H                     6.89818  -0.70539  -2.23284 
 H                     6.1636   -0.54723  -3.84426 
 C                     7.72762   0.87626  -3.43662 
 H                     8.12104   1.44179  -2.57956 
 H                     7.38778   1.59987  -4.19048 
 O                     8.71106   0.01114  -3.96984 
 C                     9.86761   0.68655  -4.42968 
 H                     10.34783   1.24406  -3.61408 
 H                     9.61457   1.40215  -5.225 
 C                     10.82662  -0.35926  -4.9695 
 H                     10.34324  -0.91773  -5.78486 
 H                     11.07782  -1.07588  -4.17344 
 O                     11.97914   0.31716  -5.4285 
 C                     12.95516  -0.55508  -5.95904 
 H                     12.57059  -1.11615  -6.82301 
 H                     13.79613   0.05899  -6.28214 
 H                     13.30765  -1.27484  -5.20615 
 C                    -3.47191  -1.26605  -1.45945 
 H                    -3.9532   -1.81433  -0.64193 
 H                    -3.21737  -1.97275  -2.25607 
 C                    -4.41831  -0.20594  -1.99383 
 H                    -4.66866   0.50772  -1.19709 
 H                    -3.93367   0.34947  -2.80941 
 O                    -5.57266  -0.8824   -2.45366 
 C                    -6.55882  -0.01734  -2.98811 
 H                    -6.89816   0.70638  -2.23293 
 H                    -6.1636    0.54723  -3.84426 
 C                    -7.72762  -0.87626  -3.43662 
 H                    -8.12195  -1.44181  -2.57998 
 H                    -7.38778  -1.59987  -4.19048 
 O                    -8.71104  -0.01015  -3.96993 
 C                    -9.86759  -0.68556  -4.42977 
 H                    -10.34823  -1.24298  -3.61326 
 H                    -9.61455  -1.40115  -5.22509 
 C                    -10.82569   0.36027  -4.96917 
 H                    -10.34322   0.91873  -5.78495 
 H                    -11.07689   1.0769   -4.17312 
 O                    -11.97912  -0.31616  -5.42859 
 C                    -12.95514   0.55608  -5.95913 
 H                    -12.57057   1.11715  -6.82309 
 H                    -13.79653  -0.05791  -6.28132 
 H                    -13.30672   1.27585  -5.20583 
 Sn                   -0.0953    5.30458   0.56417 
 C                     1.31479   6.17965   1.96243 
 H                     2.25585   6.32648   1.47503 
 H                     0.94022   7.1224    2.30405 
 H                     1.44377   5.52321   2.79694 
 C                    -2.07099   5.26275   1.46071 
 H                    -2.76721   4.83378   0.77053 
 H                    -2.0451    4.67431   2.3544 
 H                    -2.37575   6.2605    1.69977 
 C                    -0.14942   6.49489  -1.24952 
 H                    -0.53429   7.46847  -1.02597 
 H                     0.84041   6.58551  -1.64661 
 H                    -0.78027   6.01914  -1.96968 
 Sn                    0.21224  -5.2812    0.61518 
 C                     2.0605   -6.20208  -0.05288 
 H                     2.83929  -5.98881   0.64863 
 H                     1.92529  -7.26121  -0.12422 
 H                     2.32726  -5.81094  -1.01236 
 C                     0.42621  -5.69041   2.73566 
 H                     0.33473  -6.74282   2.90648 
 H                     1.38651  -5.35699   3.06788 
 H                    -0.33813  -5.17332   3.27766 
 C                    -1.41328  -6.58172   0.00291 
 H                    -2.30747  -6.30152   0.51779 
 H                    -1.5645   -6.49032  -1.05259 
 H                    -1.16711  -7.59549   0.24111 
 
 The following ModRedundant input section has been read:
 D       5       1       8       9 F                                           
 
 ITRead=  0  0  0  0  0  0  0  0  0  0  0  0  0  0  0  0  0  0  0  0
 ITRead=  0  0  0  0  0  0  0  0  0  0  0  0  0  0  0  0  0  0  0  0
 ITRead=  0  0  0  0  0  0  0  0  0  0  0  0  0  0  0  0  0  0  0  0
 ITRead=  0  0  0  0  0  0  0  0  0  0  0  0  0  0  0  0  0  0  0  0
 ITRead=  0  0  0  0  0  0  0  0  0  0
 MicOpt= -1 -1 -1 -1 -1 -1 -1 -1 -1 -1 -1 -1 -1 -1 -1 -1 -1 -1 -1 -1
 MicOpt= -1 -1 -1 -1 -1 -1 -1 -1 -1 -1 -1 -1 -1 -1 -1 -1 -1 -1 -1 -1
 MicOpt= -1 -1 -1 -1 -1 -1 -1 -1 -1 -1 -1 -1 -1 -1 -1 -1 -1 -1 -1 -1
 MicOpt= -1 -1 -1 -1 -1 -1 -1 -1 -1 -1 -1 -1 -1 -1 -1 -1 -1 -1 -1 -1
 MicOpt= -1 -1 -1 -1 -1 -1 -1 -1 -1 -1
 NAtoms=     90 NQM=       90 NQMF=       0 NMMI=      0 NMMIF=      0
                NMic=       0 NMicF=      0.
                    Isotopes and Nuclear Properties:
 (Nuclear quadrupole moments (NQMom) in fm**2, nuclear magnetic moments (NMagM)
  in nuclear magnetons)

  Atom         1           2           3           4           5           6           7           8           9          10
 IAtWgt=          12          12          12          12          32          16           1          12          12          12
 AtmWgt=  12.0000000  12.0000000  12.0000000  12.0000000  31.9720718  15.9949146   1.0078250  12.0000000  12.0000000  12.0000000
 NucSpn=           0           0           0           0           0           0           1           0           0           0
 AtZEff=  -0.0000000  -0.0000000  -0.0000000  -0.0000000  -0.0000000  -0.0000000  -0.0000000  -0.0000000  -0.0000000  -0.0000000
 NQMom=    0.0000000   0.0000000   0.0000000   0.0000000   0.0000000   0.0000000   0.0000000   0.0000000   0.0000000   0.0000000
 NMagM=    0.0000000   0.0000000   0.0000000   0.0000000   0.0000000   0.0000000   2.7928460   0.0000000   0.0000000   0.0000000
 AtZNuc=   6.0000000   6.0000000   6.0000000   6.0000000  16.0000000   8.0000000   1.0000000   6.0000000   6.0000000   6.0000000

  Atom        11          12          13          14          15          16          17          18          19          20
 IAtWgt=          12          32          16           1          12           1           1          12           1           1
 AtmWgt=  12.0000000  31.9720718  15.9949146   1.0078250  12.0000000   1.0078250   1.0078250  12.0000000   1.0078250   1.0078250
 NucSpn=           0           0           0           1           0           1           1           0           1           1
 AtZEff=  -0.0000000  -0.0000000  -0.0000000  -0.0000000  -0.0000000  -0.0000000  -0.0000000  -0.0000000  -0.0000000  -0.0000000
 NQMom=    0.0000000   0.0000000   0.0000000   0.0000000   0.0000000   0.0000000   0.0000000   0.0000000   0.0000000   0.0000000
 NMagM=    0.0000000   0.0000000   0.0000000   2.7928460   0.0000000   2.7928460   2.7928460   0.0000000   2.7928460   2.7928460
 AtZNuc=   6.0000000  16.0000000   8.0000000   1.0000000   6.0000000   1.0000000   1.0000000   6.0000000   1.0000000   1.0000000

  Atom        21          22          23          24          25          26          27          28          29          30
 IAtWgt=          16          12           1           1          12           1           1          16          12           1
 AtmWgt=  15.9949146  12.0000000   1.0078250   1.0078250  12.0000000   1.0078250   1.0078250  15.9949146  12.0000000   1.0078250
 NucSpn=           0           0           1           1           0           1           1           0           0           1
 AtZEff=  -0.0000000  -0.0000000  -0.0000000  -0.0000000  -0.0000000  -0.0000000  -0.0000000  -0.0000000  -0.0000000  -0.0000000
 NQMom=    0.0000000   0.0000000   0.0000000   0.0000000   0.0000000   0.0000000   0.0000000   0.0000000   0.0000000   0.0000000
 NMagM=    0.0000000   0.0000000   2.7928460   2.7928460   0.0000000   2.7928460   2.7928460   0.0000000   0.0000000   2.7928460
 AtZNuc=   8.0000000   6.0000000   1.0000000   1.0000000   6.0000000   1.0000000   1.0000000   8.0000000   6.0000000   1.0000000

  Atom        31          32          33          34          35          36          37          38          39          40
 IAtWgt=           1          12           1           1          16          12           1           1           1          12
 AtmWgt=   1.0078250  12.0000000   1.0078250   1.0078250  15.9949146  12.0000000   1.0078250   1.0078250   1.0078250  12.0000000
 NucSpn=           1           0           1           1           0           0           1           1           1           0
 AtZEff=  -0.0000000  -0.0000000  -0.0000000  -0.0000000  -0.0000000  -0.0000000  -0.0000000  -0.0000000  -0.0000000  -0.0000000
 NQMom=    0.0000000   0.0000000   0.0000000   0.0000000   0.0000000   0.0000000   0.0000000   0.0000000   0.0000000   0.0000000
 NMagM=    2.7928460   0.0000000   2.7928460   2.7928460   0.0000000   0.0000000   2.7928460   2.7928460   2.7928460   0.0000000
 AtZNuc=   1.0000000   6.0000000   1.0000000   1.0000000   8.0000000   6.0000000   1.0000000   1.0000000   1.0000000   6.0000000

  Atom        41          42          43          44          45          46          47          48          49          50
 IAtWgt=           1           1          12           1           1          16          12           1           1          12
 AtmWgt=   1.0078250   1.0078250  12.0000000   1.0078250   1.0078250  15.9949146  12.0000000   1.0078250   1.0078250  12.0000000
 NucSpn=           1           1           0           1           1           0           0           1           1           0
 AtZEff=  -0.0000000  -0.0000000  -0.0000000  -0.0000000  -0.0000000  -0.0000000  -0.0000000  -0.0000000  -0.0000000  -0.0000000
 NQMom=    0.0000000   0.0000000   0.0000000   0.0000000   0.0000000   0.0000000   0.0000000   0.0000000   0.0000000   0.0000000
 NMagM=    2.7928460   2.7928460   0.0000000   2.7928460   2.7928460   0.0000000   0.0000000   2.7928460   2.7928460   0.0000000
 AtZNuc=   1.0000000   1.0000000   6.0000000   1.0000000   1.0000000   8.0000000   6.0000000   1.0000000   1.0000000   6.0000000

  Atom        51          52          53          54          55          56          57          58          59          60
 IAtWgt=           1           1          16          12           1           1          12           1           1          16
 AtmWgt=   1.0078250   1.0078250  15.9949146  12.0000000   1.0078250   1.0078250  12.0000000   1.0078250   1.0078250  15.9949146
 NucSpn=           1           1           0           0           1           1           0           1           1           0
 AtZEff=  -0.0000000  -0.0000000  -0.0000000  -0.0000000  -0.0000000  -0.0000000  -0.0000000  -0.0000000  -0.0000000  -0.0000000
 NQMom=    0.0000000   0.0000000   0.0000000   0.0000000   0.0000000   0.0000000   0.0000000   0.0000000   0.0000000   0.0000000
 NMagM=    2.7928460   2.7928460   0.0000000   0.0000000   2.7928460   2.7928460   0.0000000   2.7928460   2.7928460   0.0000000
 AtZNuc=   1.0000000   1.0000000   8.0000000   6.0000000   1.0000000   1.0000000   6.0000000   1.0000000   1.0000000   8.0000000

  Atom        61          62          63          64          65          66          67          68          69          70
 IAtWgt=          12           1           1           1         118          12           1           1           1          12
 AtmWgt=  12.0000000   1.0078250   1.0078250   1.0078250 117.9018000  12.0000000   1.0078250   1.0078250   1.0078250  12.0000000
 NucSpn=           0           1           1           1           0           0           1           1           1           0
 AtZEff=  -0.0000000  -0.0000000  -0.0000000  -0.0000000  -0.0000000  -0.0000000  -0.0000000  -0.0000000  -0.0000000  -0.0000000
 NQMom=    0.0000000   0.0000000   0.0000000   0.0000000   0.0000000   0.0000000   0.0000000   0.0000000   0.0000000   0.0000000
 NMagM=    0.0000000   2.7928460   2.7928460   2.7928460   0.0000000   0.0000000   2.7928460   2.7928460   2.7928460   0.0000000
 AtZNuc=   6.0000000   1.0000000   1.0000000   1.0000000  50.0000000   6.0000000   1.0000000   1.0000000   1.0000000   6.0000000

  Atom        71          72          73          74          75          76          77          78          79          80
 IAtWgt=           1           1           1          12           1           1           1         118          12           1
 AtmWgt=   1.0078250   1.0078250   1.0078250  12.0000000   1.0078250   1.0078250   1.0078250 117.9018000  12.0000000   1.0078250
 NucSpn=           1           1           1           0           1           1           1           0           0           1
 AtZEff=  -0.0000000  -0.0000000  -0.0000000  -0.0000000  -0.0000000  -0.0000000  -0.0000000  -0.0000000  -0.0000000  -0.0000000
 NQMom=    0.0000000   0.0000000   0.0000000   0.0000000   0.0000000   0.0000000   0.0000000   0.0000000   0.0000000   0.0000000
 NMagM=    2.7928460   2.7928460   2.7928460   0.0000000   2.7928460   2.7928460   2.7928460   0.0000000   0.0000000   2.7928460
 AtZNuc=   1.0000000   1.0000000   1.0000000   6.0000000   1.0000000   1.0000000   1.0000000  50.0000000   6.0000000   1.0000000

  Atom        81          82          83          84          85          86          87          88          89          90
 IAtWgt=           1           1          12           1           1           1          12           1           1           1
 AtmWgt=   1.0078250   1.0078250  12.0000000   1.0078250   1.0078250   1.0078250  12.0000000   1.0078250   1.0078250   1.0078250
 NucSpn=           1           1           0           1           1           1           0           1           1           1
 AtZEff=  -0.0000000  -0.0000000  -0.0000000  -0.0000000  -0.0000000  -0.0000000  -0.0000000  -0.0000000  -0.0000000  -0.0000000
 NQMom=    0.0000000   0.0000000   0.0000000   0.0000000   0.0000000   0.0000000   0.0000000   0.0000000   0.0000000   0.0000000
 NMagM=    2.7928460   2.7928460   0.0000000   2.7928460   2.7928460   2.7928460   0.0000000   2.7928460   2.7928460   2.7928460
 AtZNuc=   1.0000000   1.0000000   6.0000000   1.0000000   1.0000000   1.0000000   6.0000000   1.0000000   1.0000000   1.0000000
 Leave Link  101 at Tue Mar  3 11:49:19 2020, MaxMem=  6710886400 cpu:               6.4 elap:               0.8
 (Enter /apps/gaussian/g16-a03/l103.exe)

 GradGradGradGradGradGradGradGradGradGradGradGradGradGradGradGradGradGrad
 Berny optimization.
 Initialization pass.
                           ----------------------------
                           !    Initial Parameters    !
                           ! (Angstroms and Degrees)  !
 --------------------------                            --------------------------
 ! Name  Definition              Value          Derivative Info.                !
 --------------------------------------------------------------------------------
 ! R1    R(1,2)                  1.386          estimate D2E/DX2                !
 ! R2    R(1,5)                  1.7586         estimate D2E/DX2                !
 ! R3    R(1,8)                  1.4444         estimate D2E/DX2                !
 ! R4    R(2,3)                  1.4236         estimate D2E/DX2                !
 ! R5    R(2,6)                  1.3638         estimate D2E/DX2                !
 ! R6    R(3,4)                  1.3638         estimate D2E/DX2                !
 ! R7    R(3,7)                  1.0801         estimate D2E/DX2                !
 ! R8    R(4,5)                  1.7273         estimate D2E/DX2                !
 ! R9    R(4,65)                 2.1396         estimate D2E/DX2                !
 ! R10   R(6,15)                 1.4245         estimate D2E/DX2                !
 ! R11   R(8,9)                  1.386          estimate D2E/DX2                !
 ! R12   R(8,12)                 1.7593         estimate D2E/DX2                !
 ! R13   R(9,10)                 1.4236         estimate D2E/DX2                !
 ! R14   R(9,13)                 1.3638         estimate D2E/DX2                !
 ! R15   R(10,11)                1.3647         estimate D2E/DX2                !
 ! R16   R(10,14)                1.0799         estimate D2E/DX2                !
 ! R17   R(11,12)                1.7266         estimate D2E/DX2                !
 ! R18   R(11,78)                2.1404         estimate D2E/DX2                !
 ! R19   R(13,40)                1.425          estimate D2E/DX2                !
 ! R20   R(15,16)                1.0955         estimate D2E/DX2                !
 ! R21   R(15,17)                1.0963         estimate D2E/DX2                !
 ! R22   R(15,18)                1.5175         estimate D2E/DX2                !
 ! R23   R(18,19)                1.0991         estimate D2E/DX2                !
 ! R24   R(18,20)                1.0991         estimate D2E/DX2                !
 ! R25   R(18,21)                1.4148         estimate D2E/DX2                !
 ! R26   R(21,22)                1.4165         estimate D2E/DX2                !
 ! R27   R(22,23)                1.0991         estimate D2E/DX2                !
 ! R28   R(22,24)                1.0991         estimate D2E/DX2                !
 ! R29   R(22,25)                1.5182         estimate D2E/DX2                !
 ! R30   R(25,26)                1.0996         estimate D2E/DX2                !
 ! R31   R(25,27)                1.0988         estimate D2E/DX2                !
 ! R32   R(25,28)                1.4142         estimate D2E/DX2                !
 ! R33   R(28,29)                1.4161         estimate D2E/DX2                !
 ! R34   R(29,30)                1.0985         estimate D2E/DX2                !
 ! R35   R(29,31)                1.0994         estimate D2E/DX2                !
 ! R36   R(29,32)                1.5182         estimate D2E/DX2                !
 ! R37   R(32,33)                1.1002         estimate D2E/DX2                !
 ! R38   R(32,34)                1.1002         estimate D2E/DX2                !
 ! R39   R(32,35)                1.413          estimate D2E/DX2                !
 ! R40   R(35,36)                1.4124         estimate D2E/DX2                !
 ! R41   R(36,37)                1.0996         estimate D2E/DX2                !
 ! R42   R(36,38)                1.0903         estimate D2E/DX2                !
 ! R43   R(36,39)                1.0996         estimate D2E/DX2                !
 ! R44   R(40,41)                1.0957         estimate D2E/DX2                !
 ! R45   R(40,42)                1.0949         estimate D2E/DX2                !
 ! R46   R(40,43)                1.5182         estimate D2E/DX2                !
 ! R47   R(43,44)                1.0985         estimate D2E/DX2                !
 ! R48   R(43,45)                1.0993         estimate D2E/DX2                !
 ! R49   R(43,46)                1.4148         estimate D2E/DX2                !
 ! R50   R(46,47)                1.4165         estimate D2E/DX2                !
 ! R51   R(47,48)                1.0996         estimate D2E/DX2                !
 ! R52   R(47,49)                1.0991         estimate D2E/DX2                !
 ! R53   R(47,50)                1.5182         estimate D2E/DX2                !
 ! R54   R(50,51)                1.0996         estimate D2E/DX2                !
 ! R55   R(50,52)                1.0988         estimate D2E/DX2                !
 ! R56   R(50,53)                1.4148         estimate D2E/DX2                !
 ! R57   R(53,54)                1.4161         estimate D2E/DX2                !
 ! R58   R(54,55)                1.0993         estimate D2E/DX2                !
 ! R59   R(54,56)                1.0994         estimate D2E/DX2                !
 ! R60   R(54,57)                1.5175         estimate D2E/DX2                !
 ! R61   R(57,58)                1.1001         estimate D2E/DX2                !
 ! R62   R(57,59)                1.1002         estimate D2E/DX2                !
 ! R63   R(57,60)                1.4139         estimate D2E/DX2                !
 ! R64   R(60,61)                1.4124         estimate D2E/DX2                !
 ! R65   R(61,62)                1.0996         estimate D2E/DX2                !
 ! R66   R(61,63)                1.0903         estimate D2E/DX2                !
 ! R67   R(61,64)                1.0996         estimate D2E/DX2                !
 ! R68   R(65,66)                2.1701         estimate D2E/DX2                !
 ! R69   R(65,70)                2.17           estimate D2E/DX2                !
 ! R70   R(65,74)                2.1701         estimate D2E/DX2                !
 ! R71   R(66,67)                1.0699         estimate D2E/DX2                !
 ! R72   R(66,68)                1.0704         estimate D2E/DX2                !
 ! R73   R(66,69)                1.0696         estimate D2E/DX2                !
 ! R74   R(70,71)                1.0701         estimate D2E/DX2                !
 ! R75   R(70,72)                1.0703         estimate D2E/DX2                !
 ! R76   R(70,73)                1.0703         estimate D2E/DX2                !
 ! R77   R(74,75)                1.0705         estimate D2E/DX2                !
 ! R78   R(74,76)                1.0703         estimate D2E/DX2                !
 ! R79   R(74,77)                1.0691         estimate D2E/DX2                !
 ! R80   R(78,79)                2.1703         estimate D2E/DX2                !
 ! R81   R(78,83)                2.1702         estimate D2E/DX2                !
 ! R82   R(78,87)                2.1699         estimate D2E/DX2                !
 ! R83   R(79,80)                1.0696         estimate D2E/DX2                !
 ! R84   R(79,81)                1.0701         estimate D2E/DX2                !
 ! R85   R(79,82)                1.0699         estimate D2E/DX2                !
 ! R86   R(83,84)                1.0701         estimate D2E/DX2                !
 ! R87   R(83,85)                1.0694         estimate D2E/DX2                !
 ! R88   R(83,86)                1.0702         estimate D2E/DX2                !
 ! R89   R(87,88)                1.0692         estimate D2E/DX2                !
 ! R90   R(87,89)                1.0702         estimate D2E/DX2                !
 ! R91   R(87,90)                1.0701         estimate D2E/DX2                !
 ! A1    A(2,1,5)              109.2339         estimate D2E/DX2                !
 ! A2    A(2,1,8)              128.1236         estimate D2E/DX2                !
 ! A3    A(5,1,8)              122.6425         estimate D2E/DX2                !
 ! A4    A(1,2,3)              114.2828         estimate D2E/DX2                !
 ! A5    A(1,2,6)              119.6024         estimate D2E/DX2                !
 ! A6    A(3,2,6)              126.1147         estimate D2E/DX2                !
 ! A7    A(2,3,4)              112.1188         estimate D2E/DX2                !
 ! A8    A(2,3,7)              124.3836         estimate D2E/DX2                !
 ! A9    A(4,3,7)              123.4976         estimate D2E/DX2                !
 ! A10   A(3,4,5)              112.3899         estimate D2E/DX2                !
 ! A11   A(3,4,65)             118.3803         estimate D2E/DX2                !
 ! A12   A(5,4,65)             129.2298         estimate D2E/DX2                !
 ! A13   A(1,5,4)               91.9745         estimate D2E/DX2                !
 ! A14   A(2,6,15)             118.2013         estimate D2E/DX2                !
 ! A15   A(1,8,9)              128.1236         estimate D2E/DX2                !
 ! A16   A(1,8,12)             122.6656         estimate D2E/DX2                !
 ! A17   A(9,8,12)             109.2108         estimate D2E/DX2                !
 ! A18   A(8,9,10)             114.3231         estimate D2E/DX2                !
 ! A19   A(8,9,13)             119.6024         estimate D2E/DX2                !
 ! A20   A(10,9,13)            126.0745         estimate D2E/DX2                !
 ! A21   A(9,10,11)            112.0639         estimate D2E/DX2                !
 ! A22   A(9,10,14)            124.4979         estimate D2E/DX2                !
 ! A23   A(11,10,14)           123.4382         estimate D2E/DX2                !
 ! A24   A(10,11,12)           112.4271         estimate D2E/DX2                !
 ! A25   A(10,11,78)           121.839          estimate D2E/DX2                !
 ! A26   A(12,11,78)           125.7339         estimate D2E/DX2                !
 ! A27   A(8,12,11)             91.9751         estimate D2E/DX2                !
 ! A28   A(9,13,40)            118.1656         estimate D2E/DX2                !
 ! A29   A(6,15,16)            110.7316         estimate D2E/DX2                !
 ! A30   A(6,15,17)            110.7155         estimate D2E/DX2                !
 ! A31   A(6,15,18)            107.0381         estimate D2E/DX2                !
 ! A32   A(16,15,17)           108.6994         estimate D2E/DX2                !
 ! A33   A(16,15,18)           109.8304         estimate D2E/DX2                !
 ! A34   A(17,15,18)           109.8151         estimate D2E/DX2                !
 ! A35   A(15,18,19)           109.8841         estimate D2E/DX2                !
 ! A36   A(15,18,20)           109.8841         estimate D2E/DX2                !
 ! A37   A(15,18,21)           106.8333         estimate D2E/DX2                !
 ! A38   A(19,18,20)           107.9648         estimate D2E/DX2                !
 ! A39   A(19,18,21)           111.1397         estimate D2E/DX2                !
 ! A40   A(20,18,21)           111.1397         estimate D2E/DX2                !
 ! A41   A(18,21,22)           113.4955         estimate D2E/DX2                !
 ! A42   A(21,22,23)           110.9326         estimate D2E/DX2                !
 ! A43   A(21,22,24)           110.9326         estimate D2E/DX2                !
 ! A44   A(21,22,25)           107.5732         estimate D2E/DX2                !
 ! A45   A(23,22,24)           107.9724         estimate D2E/DX2                !
 ! A46   A(23,22,25)           109.7142         estimate D2E/DX2                !
 ! A47   A(24,22,25)           109.7142         estimate D2E/DX2                !
 ! A48   A(22,25,26)           109.642          estimate D2E/DX2                !
 ! A49   A(22,25,27)           109.7029         estimate D2E/DX2                !
 ! A50   A(22,25,28)           107.4968         estimate D2E/DX2                !
 ! A51   A(26,25,27)           107.8606         estimate D2E/DX2                !
 ! A52   A(26,25,28)           111.0815         estimate D2E/DX2                !
 ! A53   A(27,25,28)           111.054          estimate D2E/DX2                !
 ! A54   A(25,28,29)           113.4925         estimate D2E/DX2                !
 ! A55   A(28,29,30)           110.9786         estimate D2E/DX2                !
 ! A56   A(28,29,31)           110.9399         estimate D2E/DX2                !
 ! A57   A(28,29,32)           107.6274         estimate D2E/DX2                !
 ! A58   A(30,29,31)           107.9028         estimate D2E/DX2                !
 ! A59   A(30,29,32)           109.7231         estimate D2E/DX2                !
 ! A60   A(31,29,32)           109.6669         estimate D2E/DX2                !
 ! A61   A(29,32,33)           109.6129         estimate D2E/DX2                !
 ! A62   A(29,32,34)           109.6129         estimate D2E/DX2                !
 ! A63   A(29,32,35)           107.5165         estimate D2E/DX2                !
 ! A64   A(33,32,34)           107.8139         estimate D2E/DX2                !
 ! A65   A(33,32,35)           111.1394         estimate D2E/DX2                !
 ! A66   A(34,32,35)           111.1394         estimate D2E/DX2                !
 ! A67   A(32,35,36)           112.9567         estimate D2E/DX2                !
 ! A68   A(35,36,37)           111.6269         estimate D2E/DX2                !
 ! A69   A(35,36,38)           107.2479         estimate D2E/DX2                !
 ! A70   A(35,36,39)           111.6269         estimate D2E/DX2                !
 ! A71   A(37,36,38)           108.9233         estimate D2E/DX2                !
 ! A72   A(37,36,39)           108.4269         estimate D2E/DX2                !
 ! A73   A(38,36,39)           108.9234         estimate D2E/DX2                !
 ! A74   A(13,40,41)           110.7188         estimate D2E/DX2                !
 ! A75   A(13,40,42)           110.7349         estimate D2E/DX2                !
 ! A76   A(13,40,43)           106.976          estimate D2E/DX2                !
 ! A77   A(41,40,42)           108.7831         estimate D2E/DX2                !
 ! A78   A(41,40,43)           109.7669         estimate D2E/DX2                !
 ! A79   A(42,40,43)           109.8474         estimate D2E/DX2                !
 ! A80   A(40,43,44)           109.9013         estimate D2E/DX2                !
 ! A81   A(40,43,45)           109.8211         estimate D2E/DX2                !
 ! A82   A(40,43,46)           106.8069         estimate D2E/DX2                !
 ! A83   A(44,43,45)           108.0785         estimate D2E/DX2                !
 ! A84   A(44,43,46)           111.1254         estimate D2E/DX2                !
 ! A85   A(45,43,46)           111.1091         estimate D2E/DX2                !
 ! A86   A(43,46,47)           113.4955         estimate D2E/DX2                !
 ! A87   A(46,47,48)           110.9559         estimate D2E/DX2                !
 ! A88   A(46,47,49)           110.9326         estimate D2E/DX2                !
 ! A89   A(46,47,50)           107.5732         estimate D2E/DX2                !
 ! A90   A(48,47,49)           107.9303         estimate D2E/DX2                !
 ! A91   A(48,47,50)           109.7337         estimate D2E/DX2                !
 ! A92   A(49,47,50)           109.7142         estimate D2E/DX2                !
 ! A93   A(47,50,51)           109.6879         estimate D2E/DX2                !
 ! A94   A(47,50,52)           109.7029         estimate D2E/DX2                !
 ! A95   A(47,50,53)           107.4654         estimate D2E/DX2                !
 ! A96   A(51,50,52)           107.8596         estimate D2E/DX2                !
 ! A97   A(51,50,53)           111.0535         estimate D2E/DX2                !
 ! A98   A(52,50,53)           111.0697         estimate D2E/DX2                !
 ! A99   A(50,53,54)           113.461          estimate D2E/DX2                !
 ! A100  A(53,54,55)           110.9625         estimate D2E/DX2                !
 ! A101  A(53,54,56)           110.9399         estimate D2E/DX2                !
 ! A102  A(53,54,57)           107.6008         estimate D2E/DX2                !
 ! A103  A(55,54,56)           107.9335         estimate D2E/DX2                !
 ! A104  A(55,54,57)           109.7216         estimate D2E/DX2                !
 ! A105  A(56,54,57)           109.6805         estimate D2E/DX2                !
 ! A106  A(54,57,58)           109.6677         estimate D2E/DX2                !
 ! A107  A(54,57,59)           109.6266         estimate D2E/DX2                !
 ! A108  A(54,57,60)           107.5087         estimate D2E/DX2                !
 ! A109  A(58,57,59)           107.8213         estimate D2E/DX2                !
 ! A110  A(58,57,60)           111.0826         estimate D2E/DX2                !
 ! A111  A(59,57,60)           111.13           estimate D2E/DX2                !
 ! A112  A(57,60,61)           112.9755         estimate D2E/DX2                !
 ! A113  A(60,61,62)           111.6269         estimate D2E/DX2                !
 ! A114  A(60,61,63)           107.2479         estimate D2E/DX2                !
 ! A115  A(60,61,64)           111.5835         estimate D2E/DX2                !
 ! A116  A(62,61,63)           108.9684         estimate D2E/DX2                !
 ! A117  A(62,61,64)           108.4266         estimate D2E/DX2                !
 ! A118  A(63,61,64)           108.9242         estimate D2E/DX2                !
 ! A119  A(4,65,66)            114.9083         estimate D2E/DX2                !
 ! A120  A(4,65,70)             97.9521         estimate D2E/DX2                !
 ! A121  A(4,65,74)            114.8601         estimate D2E/DX2                !
 ! A122  A(66,65,70)           109.4612         estimate D2E/DX2                !
 ! A123  A(66,65,74)           109.4839         estimate D2E/DX2                !
 ! A124  A(70,65,74)           109.4612         estimate D2E/DX2                !
 ! A125  A(65,66,67)           109.4712         estimate D2E/DX2                !
 ! A126  A(65,66,68)           109.4758         estimate D2E/DX2                !
 ! A127  A(65,66,69)           109.4877         estimate D2E/DX2                !
 ! A128  A(67,66,68)           109.4096         estimate D2E/DX2                !
 ! A129  A(67,66,69)           109.4871         estimate D2E/DX2                !
 ! A130  A(68,66,69)           109.4958         estimate D2E/DX2                !
 ! A131  A(65,70,71)           109.4886         estimate D2E/DX2                !
 ! A132  A(65,70,72)           109.4838         estimate D2E/DX2                !
 ! A133  A(65,70,73)           109.4845         estimate D2E/DX2                !
 ! A134  A(71,70,72)           109.5048         estimate D2E/DX2                !
 ! A135  A(71,70,73)           109.4208         estimate D2E/DX2                !
 ! A136  A(72,70,73)           109.4448         estimate D2E/DX2                !
 ! A137  A(65,74,75)           109.4681         estimate D2E/DX2                !
 ! A138  A(65,74,76)           109.4776         estimate D2E/DX2                !
 ! A139  A(65,74,77)           109.4883         estimate D2E/DX2                !
 ! A140  A(75,74,76)           109.4484         estimate D2E/DX2                !
 ! A141  A(75,74,77)           109.466          estimate D2E/DX2                !
 ! A142  A(76,74,77)           109.4788         estimate D2E/DX2                !
 ! A143  A(11,78,79)           119.848          estimate D2E/DX2                !
 ! A144  A(11,78,83)           111.3953         estimate D2E/DX2                !
 ! A145  A(11,78,87)           114.4622         estimate D2E/DX2                !
 ! A146  A(79,78,83)            97.8625         estimate D2E/DX2                !
 ! A147  A(79,78,87)           107.2649         estimate D2E/DX2                !
 ! A148  A(83,78,87)           103.683          estimate D2E/DX2                !
 ! A149  A(78,79,80)           109.485          estimate D2E/DX2                !
 ! A150  A(78,79,81)           109.4426         estimate D2E/DX2                !
 ! A151  A(78,79,82)           109.4661         estimate D2E/DX2                !
 ! A152  A(80,79,81)           109.4547         estimate D2E/DX2                !
 ! A153  A(80,79,82)           109.4949         estimate D2E/DX2                !
 ! A154  A(81,79,82)           109.484          estimate D2E/DX2                !
 ! A155  A(78,83,84)           109.4504         estimate D2E/DX2                !
 ! A156  A(78,83,85)           109.4678         estimate D2E/DX2                !
 ! A157  A(78,83,86)           109.4704         estimate D2E/DX2                !
 ! A158  A(84,83,85)           109.4989         estimate D2E/DX2                !
 ! A159  A(84,83,86)           109.4681         estimate D2E/DX2                !
 ! A160  A(85,83,86)           109.4717         estimate D2E/DX2                !
 ! A161  A(78,87,88)           109.4847         estimate D2E/DX2                !
 ! A162  A(78,87,89)           109.448          estimate D2E/DX2                !
 ! A163  A(78,87,90)           109.4301         estimate D2E/DX2                !
 ! A164  A(88,87,89)           109.5353         estimate D2E/DX2                !
 ! A165  A(88,87,90)           109.48           estimate D2E/DX2                !
 ! A166  A(89,87,90)           109.4492         estimate D2E/DX2                !
 ! D1    D(5,1,2,3)              0.0            estimate D2E/DX2                !
 ! D2    D(5,1,2,6)            179.9517         estimate D2E/DX2                !
 ! D3    D(8,1,2,3)            180.0            estimate D2E/DX2                !
 ! D4    D(8,1,2,6)             -0.0483         estimate D2E/DX2                !
 ! D5    D(2,1,5,4)              0.0            estimate D2E/DX2                !
 ! D6    D(8,1,5,4)           -180.0            estimate D2E/DX2                !
 ! D7    D(2,1,8,9)           -130.0            estimate D2E/DX2                !
 ! D8    D(2,1,8,12)            50.0387         estimate D2E/DX2                !
 ! D9    D(5,1,8,9)             50.0            Frozen                          !
 ! D10   D(5,1,8,12)          -129.9613         estimate D2E/DX2                !
 ! D11   D(1,2,3,4)              0.0            estimate D2E/DX2                !
 ! D12   D(1,2,3,7)            179.9357         estimate D2E/DX2                !
 ! D13   D(6,2,3,4)           -179.948          estimate D2E/DX2                !
 ! D14   D(6,2,3,7)             -0.0123         estimate D2E/DX2                !
 ! D15   D(1,2,6,15)          -179.9987         estimate D2E/DX2                !
 ! D16   D(3,2,6,15)            -0.0532         estimate D2E/DX2                !
 ! D17   D(2,3,4,5)              0.0            estimate D2E/DX2                !
 ! D18   D(2,3,4,65)           179.9696         estimate D2E/DX2                !
 ! D19   D(7,3,4,5)           -179.9364         estimate D2E/DX2                !
 ! D20   D(7,3,4,65)             0.0332         estimate D2E/DX2                !
 ! D21   D(3,4,5,1)              0.0            estimate D2E/DX2                !
 ! D22   D(65,4,5,1)          -179.9654         estimate D2E/DX2                !
 ! D23   D(3,4,65,66)          -64.1551         estimate D2E/DX2                !
 ! D24   D(3,4,65,70)         -179.9893         estimate D2E/DX2                !
 ! D25   D(3,4,65,74)           64.1948         estimate D2E/DX2                !
 ! D26   D(5,4,65,66)          115.8086         estimate D2E/DX2                !
 ! D27   D(5,4,65,70)           -0.0256         estimate D2E/DX2                !
 ! D28   D(5,4,65,74)         -115.8415         estimate D2E/DX2                !
 ! D29   D(2,6,15,16)           60.3535         estimate D2E/DX2                !
 ! D30   D(2,6,15,17)          -60.2859         estimate D2E/DX2                !
 ! D31   D(2,6,15,18)         -179.9523         estimate D2E/DX2                !
 ! D32   D(1,8,9,10)           180.0            estimate D2E/DX2                !
 ! D33   D(1,8,9,13)             0.0            estimate D2E/DX2                !
 ! D34   D(12,8,9,10)           -0.0345         estimate D2E/DX2                !
 ! D35   D(12,8,9,13)          179.9655         estimate D2E/DX2                !
 ! D36   D(1,8,12,11)         -179.9866         estimate D2E/DX2                !
 ! D37   D(9,8,12,11)            0.0457         estimate D2E/DX2                !
 ! D38   D(8,9,10,11)            0.0            estimate D2E/DX2                !
 ! D39   D(8,9,10,14)          180.0            estimate D2E/DX2                !
 ! D40   D(13,9,10,11)         180.0            estimate D2E/DX2                !
 ! D41   D(13,9,10,14)           0.0            estimate D2E/DX2                !
 ! D42   D(8,9,13,40)          180.0            estimate D2E/DX2                !
 ! D43   D(10,9,13,40)           0.0            estimate D2E/DX2                !
 ! D44   D(9,10,11,12)           0.0359         estimate D2E/DX2                !
 ! D45   D(9,10,11,78)         179.9685         estimate D2E/DX2                !
 ! D46   D(14,10,11,12)       -179.9641         estimate D2E/DX2                !
 ! D47   D(14,10,11,78)         -0.0315         estimate D2E/DX2                !
 ! D48   D(10,11,12,8)          -0.0474         estimate D2E/DX2                !
 ! D49   D(78,11,12,8)        -179.9769         estimate D2E/DX2                !
 ! D50   D(10,11,78,79)        129.5663         estimate D2E/DX2                !
 ! D51   D(10,11,78,83)       -117.2167         estimate D2E/DX2                !
 ! D52   D(10,11,78,87)         -0.0002         estimate D2E/DX2                !
 ! D53   D(12,11,78,79)        -50.5105         estimate D2E/DX2                !
 ! D54   D(12,11,78,83)         62.7065         estimate D2E/DX2                !
 ! D55   D(12,11,78,87)        179.923          estimate D2E/DX2                !
 ! D56   D(9,13,40,41)          60.3884         estimate D2E/DX2                !
 ! D57   D(9,13,40,42)         -60.3608         estimate D2E/DX2                !
 ! D58   D(9,13,40,43)         179.9605         estimate D2E/DX2                !
 ! D59   D(6,15,18,19)         -59.3294         estimate D2E/DX2                !
 ! D60   D(6,15,18,20)          59.3294         estimate D2E/DX2                !
 ! D61   D(6,15,18,21)        -180.0            estimate D2E/DX2                !
 ! D62   D(16,15,18,19)         60.9419         estimate D2E/DX2                !
 ! D63   D(16,15,18,20)        179.6007         estimate D2E/DX2                !
 ! D64   D(16,15,18,21)        -59.7287         estimate D2E/DX2                !
 ! D65   D(17,15,18,19)       -179.5727         estimate D2E/DX2                !
 ! D66   D(17,15,18,20)        -60.9139         estimate D2E/DX2                !
 ! D67   D(17,15,18,21)         59.7567         estimate D2E/DX2                !
 ! D68   D(15,18,21,22)       -180.0            estimate D2E/DX2                !
 ! D69   D(19,18,21,22)         60.1343         estimate D2E/DX2                !
 ! D70   D(20,18,21,22)        -60.1343         estimate D2E/DX2                !
 ! D71   D(18,21,22,23)        -60.0008         estimate D2E/DX2                !
 ! D72   D(18,21,22,24)         60.0008         estimate D2E/DX2                !
 ! D73   D(18,21,22,25)        180.0            estimate D2E/DX2                !
 ! D74   D(21,22,25,26)         59.139          estimate D2E/DX2                !
 ! D75   D(21,22,25,27)        -59.1368         estimate D2E/DX2                !
 ! D76   D(21,22,25,28)        180.0            estimate D2E/DX2                !
 ! D77   D(23,22,25,26)        -61.6299         estimate D2E/DX2                !
 ! D78   D(23,22,25,27)       -179.9057         estimate D2E/DX2                !
 ! D79   D(23,22,25,28)         59.2311         estimate D2E/DX2                !
 ! D80   D(24,22,25,26)        179.9079         estimate D2E/DX2                !
 ! D81   D(24,22,25,27)         61.6321         estimate D2E/DX2                !
 ! D82   D(24,22,25,28)        -59.2311         estimate D2E/DX2                !
 ! D83   D(22,25,28,29)       -179.9559         estimate D2E/DX2                !
 ! D84   D(26,25,28,29)        -60.0053         estimate D2E/DX2                !
 ! D85   D(27,25,28,29)         60.0352         estimate D2E/DX2                !
 ! D86   D(25,28,29,30)         59.9242         estimate D2E/DX2                !
 ! D87   D(25,28,29,31)        -60.0251         estimate D2E/DX2                !
 ! D88   D(25,28,29,32)        179.9953         estimate D2E/DX2                !
 ! D89   D(28,29,32,33)         59.0314         estimate D2E/DX2                !
 ! D90   D(28,29,32,34)        -59.1164         estimate D2E/DX2                !
 ! D91   D(28,29,32,35)        179.9575         estimate D2E/DX2                !
 ! D92   D(30,29,32,33)        179.8942         estimate D2E/DX2                !
 ! D93   D(30,29,32,34)         61.7464         estimate D2E/DX2                !
 ! D94   D(30,29,32,35)        -59.1797         estimate D2E/DX2                !
 ! D95   D(31,29,32,33)        -61.7516         estimate D2E/DX2                !
 ! D96   D(31,29,32,34)       -179.8994         estimate D2E/DX2                !
 ! D97   D(31,29,32,35)         59.1745         estimate D2E/DX2                !
 ! D98   D(29,32,35,36)        180.0            estimate D2E/DX2                !
 ! D99   D(33,32,35,36)        -60.0386         estimate D2E/DX2                !
 ! D100  D(34,32,35,36)         60.0386         estimate D2E/DX2                !
 ! D101  D(32,35,36,37)         60.7659         estimate D2E/DX2                !
 ! D102  D(32,35,36,38)        180.0            estimate D2E/DX2                !
 ! D103  D(32,35,36,39)        -60.7659         estimate D2E/DX2                !
 ! D104  D(13,40,43,44)        -59.3525         estimate D2E/DX2                !
 ! D105  D(13,40,43,45)         59.4177         estimate D2E/DX2                !
 ! D106  D(13,40,43,46)       -179.9999         estimate D2E/DX2                !
 ! D107  D(41,40,43,44)         60.8307         estimate D2E/DX2                !
 ! D108  D(41,40,43,45)        179.6008         estimate D2E/DX2                !
 ! D109  D(41,40,43,46)        -59.8167         estimate D2E/DX2                !
 ! D110  D(42,40,43,44)       -179.6004         estimate D2E/DX2                !
 ! D111  D(42,40,43,45)        -60.8302         estimate D2E/DX2                !
 ! D112  D(42,40,43,46)         59.7523         estimate D2E/DX2                !
 ! D113  D(40,43,46,47)       -179.9606         estimate D2E/DX2                !
 ! D114  D(44,43,46,47)         60.1773         estimate D2E/DX2                !
 ! D115  D(45,43,46,47)        -60.2051         estimate D2E/DX2                !
 ! D116  D(43,46,47,48)        -59.9632         estimate D2E/DX2                !
 ! D117  D(43,46,47,49)         60.0008         estimate D2E/DX2                !
 ! D118  D(43,46,47,50)        180.0            estimate D2E/DX2                !
 ! D119  D(46,47,50,51)         59.1652         estimate D2E/DX2                !
 ! D120  D(46,47,50,52)        -59.1368         estimate D2E/DX2                !
 ! D121  D(46,47,50,53)        180.0            estimate D2E/DX2                !
 ! D122  D(48,47,50,51)        -61.6434         estimate D2E/DX2                !
 ! D123  D(48,47,50,52)       -179.9454         estimate D2E/DX2                !
 ! D124  D(48,47,50,53)         59.1914         estimate D2E/DX2                !
 ! D125  D(49,47,50,51)        179.9341         estimate D2E/DX2                !
 ! D126  D(49,47,50,52)         61.6321         estimate D2E/DX2                !
 ! D127  D(49,47,50,53)        -59.2311         estimate D2E/DX2                !
 ! D128  D(47,50,53,54)       -179.9559         estimate D2E/DX2                !
 ! D129  D(51,50,53,54)        -59.9853         estimate D2E/DX2                !
 ! D130  D(52,50,53,54)         60.0456         estimate D2E/DX2                !
 ! D131  D(50,53,54,55)         59.9522         estimate D2E/DX2                !
 ! D132  D(50,53,54,56)        -60.0251         estimate D2E/DX2                !
 ! D133  D(50,53,54,57)        179.9953         estimate D2E/DX2                !
 ! D134  D(53,54,57,58)         59.0731         estimate D2E/DX2                !
 ! D135  D(53,54,57,59)        -59.1245         estimate D2E/DX2                !
 ! D136  D(53,54,57,60)        179.9576         estimate D2E/DX2                !
 ! D137  D(55,54,57,58)        179.8993         estimate D2E/DX2                !
 ! D138  D(55,54,57,59)         61.7017         estimate D2E/DX2                !
 ! D139  D(55,54,57,60)        -59.2163         estimate D2E/DX2                !
 ! D140  D(56,54,57,58)        -61.7018         estimate D2E/DX2                !
 ! D141  D(56,54,57,59)       -179.8993         estimate D2E/DX2                !
 ! D142  D(56,54,57,60)         59.1827         estimate D2E/DX2                !
 ! D143  D(54,57,60,61)        180.0            estimate D2E/DX2                !
 ! D144  D(58,57,60,61)        -60.01           estimate D2E/DX2                !
 ! D145  D(59,57,60,61)         60.0324         estimate D2E/DX2                !
 ! D146  D(57,60,61,62)         60.7659         estimate D2E/DX2                !
 ! D147  D(57,60,61,63)       -179.945          estimate D2E/DX2                !
 ! D148  D(57,60,61,64)        -60.7348         estimate D2E/DX2                !
 ! D149  D(4,65,66,67)          78.8333         estimate D2E/DX2                !
 ! D150  D(4,65,66,68)        -161.2394         estimate D2E/DX2                !
 ! D151  D(4,65,66,69)         -41.1964         estimate D2E/DX2                !
 ! D152  D(70,65,66,67)       -172.149          estimate D2E/DX2                !
 ! D153  D(70,65,66,68)        -52.2217         estimate D2E/DX2                !
 ! D154  D(70,65,66,69)         67.8214         estimate D2E/DX2                !
 ! D155  D(74,65,66,67)        -52.1598         estimate D2E/DX2                !
 ! D156  D(74,65,66,68)         67.7675         estimate D2E/DX2                !
 ! D157  D(74,65,66,69)       -172.1894         estimate D2E/DX2                !
 ! D158  D(4,65,70,71)         -60.1295         estimate D2E/DX2                !
 ! D159  D(4,65,70,72)          59.93           estimate D2E/DX2                !
 ! D160  D(4,65,70,73)         179.9135         estimate D2E/DX2                !
 ! D161  D(66,65,70,71)        179.8451         estimate D2E/DX2                !
 ! D162  D(66,65,70,72)        -60.0955         estimate D2E/DX2                !
 ! D163  D(66,65,70,73)         59.888          estimate D2E/DX2                !
 ! D164  D(74,65,70,71)         59.8419         estimate D2E/DX2                !
 ! D165  D(74,65,70,72)        179.9014         estimate D2E/DX2                !
 ! D166  D(74,65,70,73)        -60.1151         estimate D2E/DX2                !
 ! D167  D(4,65,74,75)         164.2095         estimate D2E/DX2                !
 ! D168  D(4,65,74,76)         -75.8164         estimate D2E/DX2                !
 ! D169  D(4,65,74,77)          44.2073         estimate D2E/DX2                !
 ! D170  D(66,65,74,75)        -64.7717         estimate D2E/DX2                !
 ! D171  D(66,65,74,76)         55.2024         estimate D2E/DX2                !
 ! D172  D(66,65,74,77)        175.2261         estimate D2E/DX2                !
 ! D173  D(70,65,74,75)         55.2175         estimate D2E/DX2                !
 ! D174  D(70,65,74,76)        175.1916         estimate D2E/DX2                !
 ! D175  D(70,65,74,77)        -64.7847         estimate D2E/DX2                !
 ! D176  D(11,78,79,80)         80.7584         estimate D2E/DX2                !
 ! D177  D(11,78,79,81)       -159.2709         estimate D2E/DX2                !
 ! D178  D(11,78,79,82)        -39.2759         estimate D2E/DX2                !
 ! D179  D(83,78,79,80)        -39.4951         estimate D2E/DX2                !
 ! D180  D(83,78,79,81)         80.4757         estimate D2E/DX2                !
 ! D181  D(83,78,79,82)       -159.5294         estimate D2E/DX2                !
 ! D182  D(87,78,79,80)       -146.5315         estimate D2E/DX2                !
 ! D183  D(87,78,79,81)        -26.5608         estimate D2E/DX2                !
 ! D184  D(87,78,79,82)         93.4342         estimate D2E/DX2                !
 ! D185  D(11,78,83,84)        164.9842         estimate D2E/DX2                !
 ! D186  D(11,78,83,85)        -74.9968         estimate D2E/DX2                !
 ! D187  D(11,78,83,86)         45.0012         estimate D2E/DX2                !
 ! D188  D(79,78,83,84)        -68.5946         estimate D2E/DX2                !
 ! D189  D(79,78,83,85)         51.4244         estimate D2E/DX2                !
 ! D190  D(79,78,83,86)        171.4224         estimate D2E/DX2                !
 ! D191  D(87,78,83,84)         41.4029         estimate D2E/DX2                !
 ! D192  D(87,78,83,85)        161.4219         estimate D2E/DX2                !
 ! D193  D(87,78,83,86)        -78.5801         estimate D2E/DX2                !
 ! D194  D(11,78,87,88)        -58.6701         estimate D2E/DX2                !
 ! D195  D(11,78,87,89)         61.4024         estimate D2E/DX2                !
 ! D196  D(11,78,87,90)       -178.6639         estimate D2E/DX2                !
 ! D197  D(79,78,87,88)        165.7709         estimate D2E/DX2                !
 ! D198  D(79,78,87,89)        -74.1565         estimate D2E/DX2                !
 ! D199  D(79,78,87,90)         45.7771         estimate D2E/DX2                !
 ! D200  D(83,78,87,88)         62.8797         estimate D2E/DX2                !
 ! D201  D(83,78,87,89)       -177.0478         estimate D2E/DX2                !
 ! D202  D(83,78,87,90)        -57.1141         estimate D2E/DX2                !
 --------------------------------------------------------------------------------
 Trust Radius=3.00D-01 FncErr=1.00D-07 GrdErr=1.00D-06 EigMax=2.50D+02 EigMin=1.00D-04
 Number of steps in this run=    469 maximum allowed number of steps=    540.
 GradGradGradGradGradGradGradGradGradGradGradGradGradGradGradGradGradGrad

 Leave Link  103 at Tue Mar  3 11:49:19 2020, MaxMem=  6710886400 cpu:               0.2 elap:               0.0
 (Enter /apps/gaussian/g16-a03/l202.exe)
 Stoichiometry    C28H50O8S2Sn2
 Framework group  C1[X(C28H50O8S2Sn2)]
 Deg. of freedom   264
 Full point group                 C1      NOp   1
 Largest Abelian subgroup         C1      NOp   1
 Largest concise Abelian subgroup C1      NOp   1
                         Standard orientation:                         
 ---------------------------------------------------------------------
 Center     Atomic      Atomic             Coordinates (Angstroms)
 Number     Number       Type             X           Y           Z
 ---------------------------------------------------------------------
      1          6           0        0.147104   -0.692987   -1.233465
      2          6           0        1.301452   -1.312327   -0.780847
      3          6           0        1.311591   -2.726017   -0.948385
      4          6           0        0.164928   -3.182592   -1.528525
      5         16           0       -0.946336   -1.908247   -1.881660
      6          8           0        2.299291   -0.560485   -0.233930
      7          1           0        2.127949   -3.369255   -0.654394
      8          6           0       -0.177483    0.714237   -1.210557
      9          6           0       -1.333509    1.318190   -0.741718
     10          6           0       -1.344036    2.736686   -0.861586
     11          6           0       -0.194384    3.212307   -1.422392
     12         16           0        0.917791    1.951313   -1.814812
     13          8           0       -2.332877    0.548648   -0.222937
     14          1           0       -2.160210    3.370876   -0.548833
     15          6           0        3.472558   -1.227775    0.221502
     16          1           0        3.962907   -1.756360   -0.603251
     17          1           0        3.226539   -1.952414    1.006497
     18          6           0        4.402025   -0.164159    0.776220
     19          1           0        4.643340    0.567269   -0.007886
     20          1           0        3.908213    0.371545    1.599149
     21          8           0        5.565284   -0.831306    1.227092
     22          6           0        6.537739    0.038989    1.777929
     23          1           0        6.867883    0.779090    1.035514
     24          1           0        6.132755    0.583366    2.642549
     25          6           0        7.718134   -0.810186    2.214471
     26          1           0        8.121332   -1.355532    1.348916
     27          1           0        7.387527   -1.551158    2.955463
     28          8           0        8.687859    0.060148    2.764065
     29          6           0        9.853317   -0.605922    3.214967
     30          1           0       10.343111   -1.142678    2.391178
     31          1           0        9.609306   -1.338304    3.997724
     32          6           0       10.795964    0.444593    3.774119
     33          1           0       10.302993    0.982272    4.597673
     34          1           0       11.038121    1.177996    2.990638
     35          8           0       11.957403   -0.222528    4.224161
     36          6           0       12.919611    0.654866    4.771176
     37          1           0       12.525318    1.195764    5.643581
     38          1           0       13.768874    0.047799    5.085730
     39          1           0       13.262926    1.392148    4.031122
     40          6           0       -3.507869    1.201427    0.250174
     41          1           0       -3.995621    1.756208   -0.559086
     42          1           0       -3.265130    1.898361    1.058980
     43          6           0       -4.439661    0.118863    0.764847
     44          1           0       -4.678109   -0.584965   -0.044189
     45          1           0       -3.948439   -0.442971    1.572060
     46          8           0       -5.604594    0.770656    1.233504
     47          6           0       -6.578995   -0.117486    1.751433
     48          1           0       -6.906355   -0.833364    0.983596
     49          1           0       -6.177129   -0.690453    2.598864
     50          6           0       -7.761023    0.716712    2.211784
     51          1           0       -8.162012    1.290676    1.363869
     52          1           0       -7.433162    1.432510    2.978301
     53          8           0       -8.732656   -0.172425    2.728550
     54          6           0       -9.899788    0.478290    3.197194
     55          1           0      -10.387022    1.042201    2.389099
     56          1           0       -9.658674    1.184114    4.004851
     57          6           0      -10.843490   -0.590251    3.717112
     58          1           0      -10.354399   -1.155158    4.524457
     59          1           0      -11.082748   -1.297070    2.908705
     60          8           0      -12.007511    0.061543    4.185358
     61          6           0      -12.971651   -0.833567    4.699267
     62          1           0      -12.580503   -1.403316    5.554556
     63          1           0      -13.822501   -0.237370    5.029912
     64          1           0      -13.311313   -1.545708    3.933353
     65         50           0       -0.031981   -5.284606   -1.875714
     66          6           0        1.393278   -6.115571   -3.285457
     67          1           0        2.335494   -6.256783   -2.798624
     68          1           0        1.033134   -7.057840   -3.643516
     69          1           0        1.514179   -5.443479   -4.108639
     70          6           0       -2.006440   -5.256602   -2.775506
     71          1           0       -2.710104   -4.849408   -2.079713
     72          1           0       -1.987516   -4.653012   -3.659211
     73          1           0       -2.296157   -6.254558   -3.031790
     74          6           0       -0.072016   -6.505697   -0.082232
     75          1           0       -0.442218   -7.480908   -0.322776
     76          1           0        0.918302   -6.588498    0.315336
     77          1           0       -0.711055   -6.051275    0.644450
     78         50           0        0.121024    5.303911   -1.749642
     79          6           0        1.954422    6.240339   -1.062504
     80          1           0        2.737521    6.050180   -1.765867
     81          1           0        1.803624    7.296053   -0.973802
     82          1           0        2.225113    5.837167   -0.109131
     83          6           0        0.332857    5.751539   -3.862554
     84          1           0        0.226331    6.805209   -4.016000
     85          1           0        1.298530    5.437738   -4.198302
     86          1           0       -0.422858    5.232486   -4.414674
     87          6           0       -1.524427    6.570205   -1.119138
     88          1           0       -2.413493    6.285642   -1.640460
     89          1           0       -1.676219    6.458994   -0.065622
     90          1           0       -1.292651    7.591286   -1.339898
 ---------------------------------------------------------------------
 Rotational constants (GHZ):           0.0336351           0.0183388           0.0147355
 Leave Link  202 at Tue Mar  3 11:49:19 2020, MaxMem=  6710886400 cpu:               0.0 elap:               0.0
 (Enter /apps/gaussian/g16-a03/l301.exe)
 Standard basis: LANL2DZ (5D, 7F)
 Ernie: Thresh=  0.10000D-02 Tol=  0.10000D-05 Strict=F.
 There are   456 symmetry adapted cartesian basis functions of A   symmetry.
 There are   456 symmetry adapted basis functions of A   symmetry.
   456 basis functions,  1148 primitive gaussians,   456 cartesian basis functions
   151 alpha electrons      151 beta electrons
       nuclear repulsion energy      3847.6670344058 Hartrees.



 Warning!  S  atom    5 may be hypervalent but has no d functions.
 Warning!  S  atom   12 may be hypervalent but has no d functions.



 IExCor=  402 DFT=T Ex+Corr=B3LYP ExCW=0 ScaHFX=  0.200000
 ScaDFX=  0.800000  0.720000  1.000000  0.810000 ScalE2=  1.000000  1.000000
 IRadAn=      5 IRanWt=     -1 IRanGd=            0 ICorTp=0 IEmpDi=  4
 NAtoms=   90 NActive=   90 NUniq=   90 SFac= 1.00D+00 NAtFMM=   60 NAOKFM=T Big=T
 Integral buffers will be    131072 words long.
 Raffenetti 2 integral format.
 Two-electron integral symmetry is turned on.
 Leave Link  301 at Tue Mar  3 11:49:19 2020, MaxMem=  6710886400 cpu:               0.5 elap:               0.1
 (Enter /apps/gaussian/g16-a03/l302.exe)
 NPDir=0 NMtPBC=     1 NCelOv=     1 NCel=       1 NClECP=     1 NCelD=      1
         NCelK=      1 NCelE2=     1 NClLst=     1 CellRange=     0.0.
 One-electron integrals computed using PRISM.
 One-electron integral symmetry used in STVInt
   1 Symmetry operations used in ECPInt.
 ECPInt:  NShTT=   43956 NPrTT=  293396 LenC2=   25441 LenP2D=   85546.
 LDataN:  DoStor=T MaxTD1= 4 Len=   56
 NBasis=   456 RedAO= T EigKep=  1.09D-03  NBF=   456
 NBsUse=   456 1.00D-06 EigRej= -1.00D+00 NBFU=   456
 Precomputing XC quadrature grid using
 IXCGrd= 4 IRadAn=           5 IRanWt=          -1 IRanGd=           0 AccXCQ= 0.00D+00.
 Defaulting to unpruned grid for atomic number  50.
 Defaulting to unpruned grid for atomic number  50.
 Generated NRdTot=       0 NPtTot=           0 NUsed=           0 NTot=          32
 NSgBfM=   387   384   387   387   387 MxSgAt=    90 MxSgA2=    90.
 Leave Link  302 at Tue Mar  3 11:49:22 2020, MaxMem=  6710886400 cpu:              23.9 elap:               3.0
 (Enter /apps/gaussian/g16-a03/l303.exe)
 DipDrv:  MaxL=1.
 Leave Link  303 at Tue Mar  3 11:49:22 2020, MaxMem=  6710886400 cpu:               1.0 elap:               0.1
 (Enter /apps/gaussian/g16-a03/l401.exe)
 ExpMin= 6.30D-02 ExpMax= 7.82D+03 ExpMxC= 2.73D+02 IAcc=3 IRadAn=         5 AccDes= 0.00D+00
 Harris functional with IExCor=  402 and IRadAn=       5 diagonalized for initial guess.
 HarFok:  IExCor=  402 AccDes= 0.00D+00 IRadAn=         5 IDoV= 1 UseB2=F ITyADJ=14
 ICtDFT=  3500011 ScaDFX=  1.000000  1.000000  1.000000  1.000000
 Defaulting to unpruned grid for atomic number  50.
 FoFCou: FMM=F IPFlag=           0 FMFlag=      100000 FMFlg1=        2001
         NFxFlg=           0 DoJE=T BraDBF=F KetDBF=T FulRan=T
         wScrn=  0.000000 ICntrl=       500 IOpCl=  0 I1Cent=   200000004 NGrid=           0
         NMat0=    1 NMatS0=      1 NMatT0=    0 NMatD0=    1 NMtDS0=    0 NMtDT0=    0
 Petite list used in FoFCou.
 Harris En= -1725.68824326918    
 JPrj=0 DoOrth=F DoCkMO=F.
 Leave Link  401 at Tue Mar  3 11:49:30 2020, MaxMem=  6710886400 cpu:              61.6 elap:               7.7
 (Enter /apps/gaussian/g16-a03/l502.exe)
 Integral symmetry usage will be decided dynamically.
 Closed shell SCF:
 Using DIIS extrapolation, IDIIS=  1040.
 NGot=  6710886400 LenX=  6710460430 LenY=  6710252038
 Requested convergence on RMS density matrix=1.00D-08 within 128 cycles.
 Requested convergence on MAX density matrix=1.00D-06.
 Requested convergence on             energy=1.00D-06.
 No special actions if energy rises.
 Fock matrices will be formed incrementally for  20 cycles.
 Integral accuracy reduced to 1.0D-05 until final iterations.

 Cycle   1  Pass 0  IDiag  1:
 FoFJK:  IHMeth= 1 ICntrl=       0 DoSepK=F KAlg= 0 I1Cent=           0 FoldK=F
 IRaf= 730000000 NMat=       1 IRICut=       1 DoRegI=T DoRafI=F ISym2E= 0 IDoP0=0 IntGTp=1.
 FoFCou: FMM=T IPFlag=           0 FMFlag=      100000 FMFlg1=        2001
         NFxFlg=           0 DoJE=F BraDBF=F KetDBF=F FulRan=T
         wScrn=  0.000000 ICntrl=         0 IOpCl=  0 I1Cent=           0 NGrid=           0
         NMat0=    1 NMatS0=      1 NMatT0=    0 NMatD0=    1 NMtDS0=    0 NMtDT0=    0
 Symmetry not used in FoFCou.
 FMM levels:  10  Number of levels for PrismC:   9
 Defaulting to unpruned grid for atomic number  50.
 Defaulting to unpruned grid for atomic number  50.
 Defaulting to unpruned grid for atomic number  50.
 Defaulting to unpruned grid for atomic number  50.
 Defaulting to unpruned grid for atomic number  50.
 Defaulting to unpruned grid for atomic number  50.
 Defaulting to unpruned grid for atomic number  50.
 Defaulting to unpruned grid for atomic number  50.
 E= -1723.94876367363    
 DIIS: error= 6.95D-02 at cycle   1 NSaved=   1.
 NSaved= 1 IEnMin= 1 EnMin= -1723.94876367363     IErMin= 1 ErrMin= 6.95D-02
 ErrMax= 6.95D-02  0.00D+00 EMaxC= 1.00D-01 BMatC= 1.19D+00 BMatP= 1.19D+00
 IDIUse=3 WtCom= 3.05D-01 WtEn= 6.95D-01
 Coeff-Com:  0.100D+01
 Coeff-En:   0.100D+01
 Coeff:      0.100D+01
 Gap=     0.118 Goal=   None    Shift=    0.000
 GapD=    0.118 DampG=1.000 DampE=0.500 DampFc=0.5000 IDamp=-1.
 Damping current iteration by 5.00D-01
 RMSDP=6.53D-03 MaxDP=3.22D-01              OVMax= 2.83D-01

 Cycle   2  Pass 0  IDiag  1:
 RMSU=  3.20D-03    CP:  9.68D-01
 E= -1724.58624761133     Delta-E=       -0.637483937693 Rises=F Damp=T
 DIIS: error= 9.31D-03 at cycle   2 NSaved=   2.
 NSaved= 2 IEnMin= 2 EnMin= -1724.58624761133     IErMin= 2 ErrMin= 9.31D-03
 ErrMax= 9.31D-03  0.00D+00 EMaxC= 1.00D-01 BMatC= 4.84D-02 BMatP= 1.19D+00
 IDIUse=3 WtCom= 9.07D-01 WtEn= 9.31D-02
 Coeff-Com:  0.111D+00 0.889D+00
 Coeff-En:   0.174D+00 0.826D+00
 Coeff:      0.117D+00 0.883D+00
 Gap=     0.191 Goal=   None    Shift=    0.000
 RMSDP=1.60D-03 MaxDP=8.21D-02 DE=-6.37D-01 OVMax= 2.51D-01

 Cycle   3  Pass 0  IDiag  1:
 RMSU=  1.48D-03    CP:  9.69D-01  8.10D-01
 E= -1725.40183637793     Delta-E=       -0.815588766605 Rises=F Damp=F
 DIIS: error= 1.04D-02 at cycle   3 NSaved=   3.
 NSaved= 3 IEnMin= 3 EnMin= -1725.40183637793     IErMin= 2 ErrMin= 9.31D-03
 ErrMax= 1.04D-02  0.00D+00 EMaxC= 1.00D-01 BMatC= 2.40D-02 BMatP= 4.84D-02
 IDIUse=3 WtCom= 8.96D-01 WtEn= 1.04D-01
 Coeff-Com:  0.447D-01 0.414D+00 0.541D+00
 Coeff-En:   0.000D+00 0.000D+00 0.100D+01
 Coeff:      0.400D-01 0.371D+00 0.589D+00
 Gap=     0.155 Goal=   None    Shift=    0.000
 RMSDP=7.75D-04 MaxDP=5.99D-02 DE=-8.16D-01 OVMax= 8.78D-02

 Cycle   4  Pass 0  IDiag  1:
 RMSU=  6.19D-04    CP:  9.72D-01  8.62D-01  7.09D-01
 E= -1725.41240084646     Delta-E=       -0.010564468525 Rises=F Damp=F
 DIIS: error= 1.06D-02 at cycle   4 NSaved=   4.
 NSaved= 4 IEnMin= 4 EnMin= -1725.41240084646     IErMin= 2 ErrMin= 9.31D-03
 ErrMax= 1.06D-02  0.00D+00 EMaxC= 1.00D-01 BMatC= 1.42D-02 BMatP= 2.40D-02
 IDIUse=3 WtCom= 8.94D-01 WtEn= 1.06D-01
 Coeff-Com:  0.974D-02 0.641D-01 0.421D+00 0.505D+00
 Coeff-En:   0.000D+00 0.000D+00 0.399D+00 0.601D+00
 Coeff:      0.871D-02 0.574D-01 0.419D+00 0.515D+00
 Gap=     0.153 Goal=   None    Shift=    0.000
 RMSDP=4.40D-04 MaxDP=3.93D-02 DE=-1.06D-02 OVMax= 5.67D-02

 Cycle   5  Pass 0  IDiag  1:
 RMSU=  1.97D-04    CP:  9.71D-01  8.43D-01  8.04D-01  4.16D-01
 E= -1725.42612741104     Delta-E=       -0.013726564586 Rises=F Damp=F
 DIIS: error= 3.62D-03 at cycle   5 NSaved=   5.
 NSaved= 5 IEnMin= 5 EnMin= -1725.42612741104     IErMin= 5 ErrMin= 3.62D-03
 ErrMax= 3.62D-03  0.00D+00 EMaxC= 1.00D-01 BMatC= 1.71D-03 BMatP= 1.42D-02
 IDIUse=3 WtCom= 9.64D-01 WtEn= 3.62D-02
 Coeff-Com:  0.402D-02 0.100D-01 0.247D+00 0.353D+00 0.386D+00
 Coeff-En:   0.000D+00 0.000D+00 0.000D+00 0.785D-01 0.922D+00
 Coeff:      0.387D-02 0.967D-02 0.238D+00 0.343D+00 0.405D+00
 Gap=     0.155 Goal=   None    Shift=    0.000
 RMSDP=1.36D-04 MaxDP=9.89D-03 DE=-1.37D-02 OVMax= 1.66D-02

 Cycle   6  Pass 0  IDiag  1:
 RMSU=  5.85D-05    CP:  9.71D-01  8.39D-01  8.07D-01  5.41D-01  5.25D-01
 E= -1725.42792958999     Delta-E=       -0.001802178946 Rises=F Damp=F
 DIIS: error= 6.62D-04 at cycle   6 NSaved=   6.
 NSaved= 6 IEnMin= 6 EnMin= -1725.42792958999     IErMin= 6 ErrMin= 6.62D-04
 ErrMax= 6.62D-04  0.00D+00 EMaxC= 1.00D-01 BMatC= 6.51D-05 BMatP= 1.71D-03
 IDIUse=3 WtCom= 9.93D-01 WtEn= 6.62D-03
 Coeff-Com:  0.166D-02-0.195D-02 0.856D-01 0.127D+00 0.215D+00 0.572D+00
 Coeff-En:   0.000D+00 0.000D+00 0.000D+00 0.000D+00 0.000D+00 0.100D+01
 Coeff:      0.165D-02-0.194D-02 0.850D-01 0.126D+00 0.214D+00 0.575D+00
 Gap=     0.155 Goal=   None    Shift=    0.000
 RMSDP=3.18D-05 MaxDP=2.80D-03 DE=-1.80D-03 OVMax= 3.29D-03

 Cycle   7  Pass 0  IDiag  1:
 RMSU=  2.10D-05    CP:  9.71D-01  8.39D-01  8.13D-01  5.25D-01  5.78D-01
                    CP:  7.06D-01
 E= -1725.42799712088     Delta-E=       -0.000067530891 Rises=F Damp=F
 DIIS: error= 1.63D-04 at cycle   7 NSaved=   7.
 NSaved= 7 IEnMin= 7 EnMin= -1725.42799712088     IErMin= 7 ErrMin= 1.63D-04
 ErrMax= 1.63D-04  0.00D+00 EMaxC= 1.00D-01 BMatC= 7.99D-06 BMatP= 6.51D-05
 IDIUse=3 WtCom= 9.98D-01 WtEn= 1.63D-03
 Coeff-Com:  0.531D-03-0.245D-02 0.140D-01 0.215D-01 0.632D-01 0.330D+00
 Coeff-Com:  0.573D+00
 Coeff-En:   0.000D+00 0.000D+00 0.000D+00 0.000D+00 0.000D+00 0.738D-01
 Coeff-En:   0.926D+00
 Coeff:      0.530D-03-0.244D-02 0.140D-01 0.214D-01 0.631D-01 0.330D+00
 Coeff:      0.574D+00
 Gap=     0.155 Goal=   None    Shift=    0.000
 RMSDP=1.07D-05 MaxDP=1.15D-03 DE=-6.75D-05 OVMax= 1.25D-03

 Cycle   8  Pass 0  IDiag  1:
 RMSU=  7.17D-06    CP:  9.71D-01  8.38D-01  8.15D-01  5.27D-01  5.63D-01
                    CP:  7.60D-01  7.30D-01
 E= -1725.42800652053     Delta-E=       -0.000009399649 Rises=F Damp=F
 DIIS: error= 4.90D-05 at cycle   8 NSaved=   8.
 NSaved= 8 IEnMin= 8 EnMin= -1725.42800652053     IErMin= 8 ErrMin= 4.90D-05
 ErrMax= 4.90D-05  0.00D+00 EMaxC= 1.00D-01 BMatC= 1.07D-06 BMatP= 7.99D-06
 IDIUse=1 WtCom= 1.00D+00 WtEn= 0.00D+00
 Coeff-Com:  0.206D-03-0.127D-02 0.155D-02 0.251D-02 0.196D-01 0.148D+00
 Coeff-Com:  0.350D+00 0.480D+00
 Coeff:      0.206D-03-0.127D-02 0.155D-02 0.251D-02 0.196D-01 0.148D+00
 Coeff:      0.350D+00 0.480D+00
 Gap=     0.155 Goal=   None    Shift=    0.000
 RMSDP=3.63D-06 MaxDP=2.92D-04 DE=-9.40D-06 OVMax= 3.58D-04

 Initial convergence to 1.0D-05 achieved.  Increase integral accuracy.
 Cycle   9  Pass 1  IDiag  1:
 E= -1725.42784546998     Delta-E=        0.000161050551 Rises=F Damp=F
 DIIS: error= 3.63D-04 at cycle   1 NSaved=   1.
 NSaved= 1 IEnMin= 1 EnMin= -1725.42784546998     IErMin= 1 ErrMin= 3.63D-04
 ErrMax= 3.63D-04  0.00D+00 EMaxC= 1.00D-01 BMatC= 1.14D-05 BMatP= 1.14D-05
 IDIUse=3 WtCom= 9.96D-01 WtEn= 3.63D-03
 Coeff-Com:  0.100D+01
 Coeff-En:   0.100D+01
 Coeff:      0.100D+01
 Gap=     0.155 Goal=   None    Shift=    0.000
 RMSDP=3.63D-06 MaxDP=2.92D-04 DE= 1.61D-04 OVMax= 6.61D-04

 Cycle  10  Pass 1  IDiag  1:
 RMSU=  1.26D-04    CP:  1.00D+00
 E= -1725.42786306482     Delta-E=       -0.000017594847 Rises=F Damp=F
 DIIS: error= 2.46D-05 at cycle   2 NSaved=   2.
 NSaved= 2 IEnMin= 2 EnMin= -1725.42786306482     IErMin= 2 ErrMin= 2.46D-05
 ErrMax= 2.46D-05  0.00D+00 EMaxC= 1.00D-01 BMatC= 1.44D-07 BMatP= 1.14D-05
 IDIUse=1 WtCom= 1.00D+00 WtEn= 0.00D+00
 Coeff-Com:  0.689D-02 0.993D+00
 Coeff:      0.689D-02 0.993D+00
 Gap=     0.155 Goal=   None    Shift=    0.000
 RMSDP=3.99D-06 MaxDP=3.32D-04 DE=-1.76D-05 OVMax= 4.78D-04

 Cycle  11  Pass 1  IDiag  1:
 RMSU=  3.38D-06    CP:  1.00D+00  1.02D+00
 E= -1725.42786253874     Delta-E=        0.000000526085 Rises=F Damp=F
 DIIS: error= 5.33D-05 at cycle   3 NSaved=   3.
 NSaved= 3 IEnMin= 2 EnMin= -1725.42786306482     IErMin= 2 ErrMin= 2.46D-05
 ErrMax= 5.33D-05  0.00D+00 EMaxC= 1.00D-01 BMatC= 5.90D-07 BMatP= 1.44D-07
 IDIUse=1 WtCom= 1.00D+00 WtEn= 0.00D+00
 Coeff-Com: -0.795D-02 0.675D+00 0.332D+00
 Coeff:     -0.795D-02 0.675D+00 0.332D+00
 Gap=     0.155 Goal=   None    Shift=    0.000
 RMSDP=2.28D-06 MaxDP=2.33D-04 DE= 5.26D-07 OVMax= 3.41D-04

 Cycle  12  Pass 1  IDiag  1:
 RMSU=  5.39D-07    CP:  1.00D+00  1.02D+00  3.43D-01
 E= -1725.42786323542     Delta-E=       -0.000000696680 Rises=F Damp=F
 DIIS: error= 2.42D-06 at cycle   4 NSaved=   4.
 NSaved= 4 IEnMin= 4 EnMin= -1725.42786323542     IErMin= 4 ErrMin= 2.42D-06
 ErrMax= 2.42D-06  0.00D+00 EMaxC= 1.00D-01 BMatC= 3.20D-09 BMatP= 1.44D-07
 IDIUse=1 WtCom= 1.00D+00 WtEn= 0.00D+00
 Coeff-Com: -0.452D-02 0.362D+00 0.185D+00 0.458D+00
 Coeff:     -0.452D-02 0.362D+00 0.185D+00 0.458D+00
 Gap=     0.155 Goal=   None    Shift=    0.000
 RMSDP=1.92D-07 MaxDP=1.64D-05 DE=-6.97D-07 OVMax= 2.00D-05

 Cycle  13  Pass 1  IDiag  1:
 RMSU=  1.68D-07    CP:  1.00D+00  1.02D+00  3.59D-01  8.59D-01
 E= -1725.42786323881     Delta-E=       -0.000000003392 Rises=F Damp=F
 DIIS: error= 1.26D-06 at cycle   5 NSaved=   5.
 NSaved= 5 IEnMin= 5 EnMin= -1725.42786323881     IErMin= 5 ErrMin= 1.26D-06
 ErrMax= 1.26D-06  0.00D+00 EMaxC= 1.00D-01 BMatC= 2.26D-10 BMatP= 3.20D-09
 IDIUse=1 WtCom= 1.00D+00 WtEn= 0.00D+00
 Coeff-Com: -0.166D-02 0.129D+00 0.675D-01 0.247D+00 0.558D+00
 Coeff:     -0.166D-02 0.129D+00 0.675D-01 0.247D+00 0.558D+00
 Gap=     0.155 Goal=   None    Shift=    0.000
 RMSDP=7.72D-08 MaxDP=5.38D-06 DE=-3.39D-09 OVMax= 8.50D-06

 Cycle  14  Pass 1  IDiag  1:
 RMSU=  6.24D-08    CP:  1.00D+00  1.02D+00  3.58D-01  8.75D-01  7.37D-01
 E= -1725.42786323896     Delta-E=       -0.000000000146 Rises=F Damp=F
 DIIS: error= 9.34D-07 at cycle   6 NSaved=   6.
 NSaved= 6 IEnMin= 6 EnMin= -1725.42786323896     IErMin= 6 ErrMin= 9.34D-07
 ErrMax= 9.34D-07  0.00D+00 EMaxC= 1.00D-01 BMatC= 8.58D-11 BMatP= 2.26D-10
 IDIUse=1 WtCom= 1.00D+00 WtEn= 0.00D+00
 Coeff-Com: -0.301D-03 0.214D-01 0.119D-01 0.862D-01 0.403D+00 0.477D+00
 Coeff:     -0.301D-03 0.214D-01 0.119D-01 0.862D-01 0.403D+00 0.477D+00
 Gap=     0.155 Goal=   None    Shift=    0.000
 RMSDP=3.31D-08 MaxDP=2.81D-06 DE=-1.46D-10 OVMax= 4.37D-06

 Cycle  15  Pass 1  IDiag  1:
 RMSU=  1.91D-08    CP:  1.00D+00  1.02D+00  3.59D-01  8.81D-01  8.20D-01
                    CP:  6.38D-01
[...]
    71  H    0.233153
    72  H    0.232049
    73  H    0.222333
    74  C   -0.966838
    75  H    0.222304
    76  H    0.231450
    77  H    0.232461
    78  Sn   1.200354
    79  C   -0.967754
    80  H    0.232296
    81  H    0.222400
    82  H    0.231667
    83  C   -0.966890
    84  H    0.222280
    85  H    0.233001
    86  H    0.231888
    87  C   -0.986212
    88  H    0.231166
    89  H    0.231315
    90  H    0.229344
 Sum of Mulliken charges =  -0.00000
 Mulliken charges with hydrogens summed into heavy atoms:
               1
     1  C   -0.263231
     2  C    0.359714
     3  C    0.044414
     4  C   -0.566913
     5  S    0.208690
     6  O   -0.311570
     8  C   -0.253456
     9  C    0.369420
    10  C    0.043298
    11  C   -0.565990
    12  S    0.208086
    13  O   -0.310997
    15  C    0.170034
    18  C    0.165937
    21  O   -0.336114
    22  C    0.171835
    25  C    0.168784
    28  O   -0.339152
    29  C    0.180646
    32  C    0.153083
    35  O   -0.325181
    36  C    0.164686
    40  C    0.170192
    43  C    0.166104
    46  O   -0.336128
    47  C    0.171887
    50  C    0.168746
    53  O   -0.339139
    54  C    0.180624
    57  C    0.153094
    60  O   -0.325190
    61  C    0.164674
    65  Sn   1.199790
    66  C   -0.294496
    70  C   -0.280416
    74  C   -0.280622
    78  Sn   1.200354
    79  C   -0.281391
    83  C   -0.279721
    87  C   -0.294387
 Electronic spatial extent (au):  <R**2>=          65251.5968
 Charge=             -0.0000 electrons
 Dipole moment (field-independent basis, Debye):
    X=              0.0457    Y=              0.0608    Z=              1.3009  Tot=              1.3031
 Quadrupole moment (field-independent basis, Debye-Ang):
   XX=           -241.4998   YY=           -249.0045   ZZ=           -271.9354
   XY=             25.0977   XZ=             -0.3926   YZ=             -0.0988
 Traceless Quadrupole moment (field-independent basis, Debye-Ang):
   XX=             12.6468   YY=              5.1421   ZZ=            -17.7888
   XY=             25.0977   XZ=             -0.3926   YZ=             -0.0988
 Octapole moment (field-independent basis, Debye-Ang**2):
  XXX=             -8.8418  YYY=             -9.1579  ZZZ=           -132.7748  XYY=             10.0505
  XXY=              2.6885  XXZ=            157.3073  XZZ=             -1.1351  YZZ=              0.9685
  YYZ=           -123.7947  XYZ=            128.7379
 Hexadecapole moment (field-independent basis, Debye-Ang**3):
 XXXX=         -53558.7962 YYYY=         -16313.6486 ZZZZ=          -9021.2733 XXXY=           5437.0453
 XXXZ=           -115.5176 YYYX=            214.3182 YYYZ=            -29.4705 ZZZX=            -26.0040
 ZZZY=            -18.9205 XXYY=         -13368.2181 XXZZ=         -10288.6850 YYZZ=          -4378.1671
 XXYZ=             30.9502 YYXZ=             30.4778 ZZXY=            639.9830
 N-N= 3.796707157825D+03 E-N=-1.160636965146D+04  KE= 1.698573908989D+03
 No NMR shielding tensors so no spin-rotation constants.
 Leave Link  601 at Tue Mar  3 13:22:24 2020, MaxMem=  6710886400 cpu:               2.7 elap:               0.4
 (Enter /apps/gaussian/g16-a03/l602.exe)
 FitSet:  NAtFit=    90 NAtPot=    90 NAtFrz=     0 MDM=    94 TotChg=   0.00000
 UFF atomic radii scaled by 1 / 1.20 used.

 **********************************************************************

            Electrostatic Properties Using The SCF Density

 **********************************************************************

       Atomic Center    1 is at   0.143678 -0.742084 -1.048434
       Atomic Center    2 is at   1.336039 -1.341728 -0.665265
       Atomic Center    3 is at   1.378597 -2.773924 -0.840970
       Atomic Center    4 is at   0.231848 -3.328812 -1.384178
       Atomic Center    5 is at  -0.978008 -2.019229 -1.708889
       Atomic Center    6 is at   2.373826 -0.560659 -0.156222
       Atomic Center    7 is at   2.238477 -3.373287 -0.561792
       Atomic Center    8 is at  -0.193199  0.663404 -1.107470
       Atomic Center    9 is at  -1.366145  1.295042 -0.716618
       Atomic Center   10 is at  -1.379054  2.724759 -0.913896
       Atomic Center   11 is at  -0.215890  3.247902 -1.454160
       Atomic Center   12 is at   0.972350  1.910343 -1.744064
       Atomic Center   13 is at  -2.414050  0.542523 -0.186306
       Atomic Center   14 is at  -2.228553  3.345712 -0.650595
       Atomic Center   15 is at   3.594488 -1.235340  0.280191
       Atomic Center   16 is at   4.067905 -1.761175 -0.560357
       Atomic Center   17 is at   3.372970 -1.955308  1.079988
       Atomic Center   18 is at   4.513943 -0.135668  0.798630
       Atomic Center   19 is at   4.722783  0.593920  0.001149
       Atomic Center   20 is at   4.041403  0.391165  1.641849
       Atomic Center   21 is at   5.736804 -0.803597  1.223986
       Atomic Center   22 is at   6.743369  0.105597  1.759800
       Atomic Center   23 is at   7.037408  0.848815  1.002300
       Atomic Center   24 is at   6.354747  0.638328  2.641721
       Atomic Center   25 is at   7.941989 -0.752569  2.148758
       Atomic Center   26 is at   8.330283 -1.285148  1.266215
       Atomic Center   27 is at   7.646658 -1.497084  2.904917
       Atomic Center   28 is at   8.946512  0.156349  2.685390
       Atomic Center   29 is at  10.171131 -0.513188  3.108547
       Atomic Center   30 is at  10.641098 -1.035674  2.260594
       Atomic Center   31 is at   9.957902 -1.249882  3.898932
       Atomic Center   32 is at  11.103492  0.570209  3.639004
       Atomic Center   33 is at  10.634026  1.092969  4.487912
       Atomic Center   34 is at  11.317310  1.307607  2.848531
       Atomic Center   35 is at  12.323423 -0.106707  4.058848
       Atomic Center   36 is at  13.328661  0.794082  4.595998
       Atomic Center   37 is at  12.957237  1.323088  5.488826
       Atomic Center   38 is at  14.185714  0.174049  4.872071
       Atomic Center   39 is at  13.642223  1.538389  3.845909
       Atomic Center   40 is at  -3.624881  1.245874  0.231907
       Atomic Center   41 is at  -4.088701  1.759096 -0.621687
       Atomic Center   42 is at  -3.393670  1.980872  1.015122
       Atomic Center   43 is at  -4.561786  0.172803  0.774239
       Atomic Center   44 is at  -4.782116 -0.571012 -0.006848
       Atomic Center   45 is at  -4.097644 -0.342530  1.629151
       Atomic Center   46 is at  -5.773976  0.869257  1.184107
       Atomic Center   47 is at  -6.795076 -0.011999  1.738778
       Atomic Center   48 is at  -7.100277 -0.766961  0.997484
       Atomic Center   49 is at  -6.415448 -0.531277  2.632556
       Atomic Center   50 is at  -7.980314  0.873216  2.107598
       Atomic Center   51 is at  -8.359513  1.392419  1.213211
       Atomic Center   52 is at  -7.673888  1.629335  2.847656
       Atomic Center   53 is at  -8.999431 -0.007873  2.662820
       Atomic Center   54 is at -10.213566  0.689912  3.070232
       Atomic Center   55 is at -10.674500  1.201605  2.210813
       Atomic Center   56 is at  -9.989272  1.439811  3.844985
       Atomic Center   57 is at -11.163439 -0.367006  3.622586
       Atomic Center   58 is at -10.702935 -0.879048  4.482858
       Atomic Center   59 is at -11.388424 -1.117512  2.847702
       Atomic Center   60 is at -12.372741  0.337954  4.026748
       Atomic Center   61 is at -13.392632 -0.535245  4.581549
       Atomic Center   62 is at -13.030426 -1.051167  5.485749
       Atomic Center   63 is at -14.239957  0.103989  4.843498
       Atomic Center   64 is at -13.717335 -1.290110  3.846912
       Atomic Center   65 is at  -0.157122 -5.388936 -1.771602
       Atomic Center   66 is at   1.620919 -6.444579 -1.211679
       Atomic Center   67 is at   1.842063 -6.299622 -0.146718
       Atomic Center   68 is at   1.498613 -7.520420 -1.391148
       Atomic Center   69 is at   2.481690 -6.096996 -1.796717
       Atomic Center   70 is at  -0.583041 -5.641422 -3.854815
       Atomic Center   71 is at  -1.470539 -5.062364 -4.139585
       Atomic Center   72 is at   0.260868 -5.295303 -4.464236
       Atomic Center   73 is at  -0.770788 -6.697471 -4.088319
       Atomic Center   74 is at  -1.834023 -6.020891 -0.598941
       Atomic Center   75 is at  -2.048240 -7.084165 -0.768050
       Atomic Center   76 is at  -1.633840 -5.871741  0.469247
       Atomic Center   77 is at  -2.727890 -5.442256 -0.863788
       Atomic Center   78 is at   0.212775  5.291883 -1.882898
       Atomic Center   79 is at   1.931624  5.898463 -0.758670
       Atomic Center   80 is at   2.805474  5.296158 -1.037303
       Atomic Center   81 is at   2.166179  6.954297 -0.946331
       Atomic Center   82 is at   1.753850  5.767092  0.315794
       Atomic Center   83 is at   0.596126  5.505234 -3.978836
       Atomic Center   84 is at   0.801649  6.553430 -4.231991
       Atomic Center   85 is at   1.463877  4.902394 -4.274824
       Atomic Center   86 is at  -0.268935  5.169386 -4.563856
       Atomic Center   87 is at  -1.525959  6.398592 -1.298774
       Atomic Center   88 is at  -2.406982  6.068354 -1.863394
       Atomic Center   89 is at  -1.729537  6.269086 -0.228360
       Atomic Center   90 is at  -1.379476  7.469172 -1.491148
    3945 points will be used for fitting atomic charges
 Fitting point charges to electrostatic potential
 Charges from ESP fit, RMS=   0.00228 RRMS=   0.20339:
 ESP charges:
               1
     1  C   -0.242859
     2  C    0.764737
     3  C   -0.416020
     4  C   -0.372928
     5  S   -0.017513
     6  O   -0.768510
     7  H    0.163278
     8  C    0.010458
     9  C    0.544146
    10  C   -0.307796
    11  C   -0.440453
    12  S   -0.036360
    13  O   -0.748663
    14  H    0.143349
    15  C    0.446098
    16  H    0.011801
    17  H   -0.004446
    18  C    0.362113
    19  H    0.016346
    20  H    0.012818
    21  O   -0.786835
    22  C    0.350800
    23  H    0.005562
    24  H    0.007043
    25  C    0.427068
    26  H   -0.000804
    27  H    0.004113
    28  O   -0.732124
    29  C    0.185595
    30  H    0.033933
    31  H    0.032139
    32  C    0.367330
    33  H    0.022198
    34  H    0.021945
    35  O   -0.532337
    36  C   -0.114756
    37  H    0.087989
    38  H    0.136912
    39  H    0.088575
    40  C    0.662865
    41  H   -0.032635
    42  H   -0.043157
    43  C    0.199595
    44  H    0.041882
    45  H    0.039240
    46  O   -0.786405
    47  C    0.389176
    48  H    0.003303
    49  H    0.003979
    50  C    0.414087
    51  H   -0.001073
    52  H    0.000067
    53  O   -0.747280
    54  C    0.302783
    55  H    0.010567
    56  H    0.009680
    57  C    0.254933
    58  H    0.042673
    59  H    0.041841
    60  O   -0.514116
    61  C   -0.106426
    62  H    0.088828
    63  H    0.131019
    64  H    0.089471
    65  Sn   1.235968
    66  C   -0.875700
    67  H    0.199911
    68  H    0.188298
    69  H    0.198941
    70  C   -0.799552
    71  H    0.183606
    72  H    0.172700
    73  H    0.166040
    74  C   -0.830234
    75  H    0.178008
    76  H    0.179998
    77  H    0.184654
    78  Sn   1.263828
    79  C   -0.858658
    80  H    0.193540
    81  H    0.183679
    82  H    0.185957
    83  C   -0.808562
    84  H    0.164626
    85  H    0.189063
    86  H    0.174816
    87  C   -0.858962
    88  H    0.191707
    89  H    0.195418
    90  H    0.182065
 Sum of ESP charges =   0.00000
 ESP charges with hydrogens summed into heavy atoms:
               1
     1  C   -0.242859
     2  C    0.764737
     3  C   -0.252742
     4  C   -0.372928
     5  S   -0.017513
     6  O   -0.768510
     8  C    0.010458
     9  C    0.544146
    10  C   -0.164446
    11  C   -0.440453
    12  S   -0.036360
    13  O   -0.748663
    15  C    0.453453
    18  C    0.391277
    21  O   -0.786835
    22  C    0.363405
    25  C    0.430377
    28  O   -0.732124
    29  C    0.251668
    32  C    0.411473
    35  O   -0.532337
    36  C    0.198720
    40  C    0.587072
    43  C    0.280717
    46  O   -0.786405
    47  C    0.396458
    50  C    0.413082
    53  O   -0.747280
    54  C    0.323031
    57  C    0.339447
    60  O   -0.514116
    61  C    0.202892
    65  Sn   1.235968
    66  C   -0.288551
    70  C   -0.277205
    74  C   -0.287574
    78  Sn   1.263828
    79  C   -0.295482
    83  C   -0.280056
    87  C   -0.289771
 Charge=   0.00000 Dipole=     0.0212     0.0856     1.2495 Tot=     1.2526
 -----------------------------------------------------------------

              Electrostatic Properties (Atomic Units)

 -----------------------------------------------------------------
    Center     Electric         -------- Electric Field --------
               Potential          X             Y             Z
 -----------------------------------------------------------------
    1 Atom    -14.733519
    2 Atom    -14.694391
    3 Atom    -14.753999
    4 Atom    -14.756872
    5 Atom     -3.654656
    6 Atom    -22.328120
    7 Atom     -1.087691
    8 Atom    -14.733844
    9 Atom    -14.694596
   10 Atom    -14.753996
   11 Atom    -14.756774
   12 Atom     -3.654346
   13 Atom    -22.328159
   14 Atom     -1.087702
   15 Atom    -14.700428
   16 Atom     -1.101346
   17 Atom     -1.101187
   18 Atom    -14.707059
   19 Atom     -1.108295
   20 Atom     -1.108264
   21 Atom    -22.348020
   22 Atom    -14.709094
   23 Atom     -1.109834
   24 Atom     -1.109861
   25 Atom    -14.709916
   26 Atom     -1.110742
   27 Atom     -1.110750
   28 Atom    -22.351118
   29 Atom    -14.711713
   30 Atom     -1.112465
   31 Atom     -1.112451
   32 Atom    -14.712037
   33 Atom     -1.112538
   34 Atom     -1.112539
   35 Atom    -22.353020
   36 Atom    -14.715054
   37 Atom     -1.105485
   38 Atom     -1.103088
   39 Atom     -1.105487
   40 Atom    -14.700542
   41 Atom     -1.101419
   42 Atom     -1.101300
   43 Atom    -14.707172
   44 Atom     -1.108403
   45 Atom     -1.108387
   46 Atom    -22.348117
   47 Atom    -14.709195
   48 Atom     -1.109933
   49 Atom     -1.109966
   50 Atom    -14.709992
   51 Atom     -1.110819
   52 Atom     -1.110822
   53 Atom    -22.351190
   54 Atom    -14.711774
   55 Atom     -1.112523
   56 Atom     -1.112515
   57 Atom    -14.712098
   58 Atom     -1.112601
   59 Atom     -1.112599
   60 Atom    -22.353073
   61 Atom    -14.715103
   62 Atom     -1.105535
   63 Atom     -1.103135
   64 Atom     -1.105535
   65 Atom     -1.622836
   66 Atom    -14.784256
   67 Atom     -1.107336
   68 Atom     -1.106680
   69 Atom     -1.107379
   70 Atom    -14.788407
   71 Atom     -1.111511
   72 Atom     -1.112328
   73 Atom     -1.110716
   74 Atom    -14.788098
   75 Atom     -1.110448
   76 Atom     -1.112049
   77 Atom     -1.111280
   78 Atom     -1.622730
   79 Atom    -14.787902
   80 Atom     -1.111024
   81 Atom     -1.110271
   82 Atom     -1.111876
   83 Atom    -14.788375
   84 Atom     -1.110672
   85 Atom     -1.111510
   86 Atom     -1.112280
   87 Atom    -14.784177
   88 Atom     -1.107251
   89 Atom     -1.107321
   90 Atom     -1.106601
 -----------------------------------------------------------------
 Leave Link  602 at Tue Mar  3 13:22:24 2020, MaxMem=  6710886400 cpu:               2.8 elap:               0.3
 (Enter /apps/gaussian/g16-a03/l9999.exe)
 1\1\GINC-CX1-141-15-2\FOpt\RB3LYP\LANL2DZ\C28H50O8S2Sn2\NS5018\03-Mar-
 2020\0\\#p opt=modredundant pop=MKUFF b3lyp/lanl2dz\\O3G_1m_0sc_Sn_pop
 .gjf\\0,1\C,0.1214723122,0.7006146311,-0.1612963312\C,1.3161291054,1.3
 155640483,-0.5116496501\C,1.3458567147,2.7441874459,-0.30666459\C,0.18
 61497854,3.280594298,0.2275222695\S,-1.0201368939,1.9569253954,0.50495
 59788\O,2.3678521399,0.5516318346,-1.0180924272\H,2.2062998649,3.35460
 82899,-0.5588428028\C,-0.2067514864,-0.707933216,-0.1362007203\C,-1.36
 84401321,-1.3391955448,-0.5598984632\C,-1.3749674113,-2.7726408219,-0.
 3914671694\C,-0.2177347151,-3.2989671314,0.1583576926\S,0.9561569237,-
 1.9598140027,0.4955065474\O,-2.4121737077,-0.5829964981,-1.093193138\H
 ,-2.2155368868,-3.3936826075,-0.6818295666\C,3.5912099511,1.2428553391
 ,-1.4196818972\H,4.0464650327,1.7547628678,-0.5607055706\H,3.378587425
 5,1.9772897884,-2.2086663962\C,4.5269609903,0.1598117812,-1.9439351902
 \H,4.7270141282,-0.5842759047,-1.1576778487\H,4.0726355319,-0.35303469
 3,-2.8055862111\O,5.7523735057,0.8440767095,-2.3345671137\C,6.77421656
 17,-0.0476169241,-2.8708726698\H,7.0602360695,-0.8039758456,-2.1233751
 76\H,6.4045020124,-0.5650372479,-3.7698724232\C,7.9734632605,0.8259536
 768,-3.2217412459\H,8.3428402116,1.3432079066,-2.3221290433\H,7.686120
 8343,1.5835739317,-3.9678953144\O,8.9932777554,-0.0654604162,-3.758894
 5752\C,10.2203981677,0.6203791874,-4.1472665248\H,10.6720992894,1.1287
 678406,-3.2810139017\H,10.015786515,1.3714009331,-4.9263645792\C,11.16
 91500023,-0.4460667915,-4.6829838251\H,10.7179677987,-0.9547070114,-5.
 5501871604\H,11.3743532678,-1.1977906429,-3.9038015851\O,12.3914752882
 ,0.247052812,-5.0679774159\C,13.4119578876,-0.6362190447,-5.6054733469
 \H,13.0596007013,-1.1495845651,-6.5150037907\H,14.2693796502,-0.005213
 8698,-5.854184456\H,13.7176314303,-1.393390807,-4.8650668138\C,-3.6107
 799569,-1.2856516547,-1.5463318995\H,-4.0857190615,-1.818916874,-0.711
 3413752\H,-3.3610856103,-2.0032523278,-2.3399365612\C,-4.5455184453,-0
 .2080095047,-2.0833132401\H,-4.784356626,0.5185193886,-1.2914705317\H,
 -4.070249359,0.3273940374,-2.9195735418\O,-5.7456740788,-0.9039466731,
 -2.5279959997\C,-6.7630676879,-0.0183758736,-3.0826048971\H,-7.0861537
 27,0.7195460396,-2.3317924314\H,-6.3716554037,0.5212049138,-3.95910682
 58\C,-7.9356922745,-0.903680591,-3.4895558248\H,-8.3266871636,-1.44319
 53508,-2.6124358426\H,-7.6113950242,-1.6427766993,-4.2391348434\O,-8.9
 510934177,-0.0182529678,-4.0446839023\C,-10.1532265934,-0.7155826099,-
 4.48697197\H,-10.6253907775,-1.2474169406,-3.6460773098\H,-9.910492417
 ,-1.4482952203,-5.2725355124\C,-11.1006475147,0.346027997,-5.034519445
 2\H,-10.6289007026,0.8782263002,-5.8762671943\H,-11.344079778,1.079340
 898,-4.2488249356\O,-12.2979556857,-0.3585087974,-5.4736181661\C,-13.3
 140840796,0.5190175798,-6.0284964542\H,-12.9398879053,1.0553383143,-6.
 9157861529\H,-14.1523776101,-0.1203145008,-6.3178336175\H,-13.65655305
 93,1.2568493973,-5.2846796067\Sn,-0.223519694,5.3299517016,0.649199393
 5\C,1.5566432097,6.4081518604,0.141431247\H,1.7970919736,6.2860545214,
 -0.9222116595\H,1.423907987,7.4793542076,0.3401990351\H,2.4095627778,6
 .0544833049,0.7342695259\C,-0.686989503,5.5377705049,2.7293286524\H,-1
 .5752814261,4.9473593547,2.9870229426\H,0.1486408779,5.1849671719,3.34
 6279095\H,-0.8859513521,6.5876756586,2.9805816663\C,-1.8842483305,5.97
 44325242,-0.5395493357\H,-2.1086154193,7.0326821568,-0.3529846317\H,-1
 .6646729384,5.8480723089,-1.6068659665\H,-2.7785676628,5.3848023741,-0
 .3018729741\Sn,0.2174484752,-5.3483208869,0.5535677294\C,1.9595226275,
 -5.9210231805,-0.5525326372\H,2.8243024158,-5.3187748804,-0.2467943739
 \H,2.1980258661,-6.9788681204,-0.3819508959\H,1.7993958728,-5.76925244
 12,-1.6270835932\C,0.566076748,-5.6012358681,2.6511675259\H,0.77437169
 06,-6.6529483744,2.8868689052\H,1.4244553473,-4.9988412844,2.974159903
 \H,-0.3112130479,-5.2828303337,3.2276688123\C,-1.5033521022,-6.4543402
 412,-0.0826468295\H,-2.3962114526,-6.1412378613,0.4730717287\H,-1.6893
 359338,-6.3046833282,-1.153635319\H,-1.3528861494,-7.5275947606,0.0908
 225706\\Version=ES64L-G16RevA.03\State=1-A\HF=-1725.4783655\RMSD=6.449
 e-09\RMSF=4.922e-04\Dipole=0.0269682,-0.0135245,-0.5117801\Quadrupole=
 9.6407216,3.5769654,-13.217687,-18.6256652,0.3123682,-0.0549706\PG=C01
  [X(C28H50O8S2Sn2)]\\@


 Spring appears, and we are once more children.
                                  -- Anonymous
 Job cpu time:       0 days 11 hours 47 minutes 37.4 seconds.
 Elapsed time:       0 days  1 hours 28 minutes 42.8 seconds.
 File lengths (MBytes):  RWF=    138 Int=      0 D2E=      0 Chk=     21 Scr=      1
 Normal termination of Gaussian 16 at Tue Mar  3 13:22:25 2020.
