 Entering Gaussian System, Link 0=g16
 Input=monomer.gjf
 Output=monomer.log
 Initial command:
 /apps/gaussian/g16-a03/l1.exe "/tmp/pbs.1208517.pbs/Gau-736.inp" -scrdir="/tmp/pbs.1208517.pbs/"
 Entering Link 1 = /apps/gaussian/g16-a03/l1.exe PID=       737.
  
 Copyright (c) 1988,1990,1992,1993,1995,1998,2003,2009,2016,
            Gaussian, Inc.  All Rights Reserved.
  
 This is part of the Gaussian(R) 16 program.  It is based on
 the Gaussian(R) 09 system (copyright 2009, Gaussian, Inc.),
 the Gaussian(R) 03 system (copyright 2003, Gaussian, Inc.),
 the Gaussian(R) 98 system (copyright 1998, Gaussian, Inc.),
 the Gaussian(R) 94 system (copyright 1995, Gaussian, Inc.),
 the Gaussian 92(TM) system (copyright 1992, Gaussian, Inc.),
 the Gaussian 90(TM) system (copyright 1990, Gaussian, Inc.),
 the Gaussian 88(TM) system (copyright 1988, Gaussian, Inc.),
 the Gaussian 86(TM) system (copyright 1986, Carnegie Mellon
 University), and the Gaussian 82(TM) system (copyright 1983,
 Carnegie Mellon University). Gaussian is a federally registered
 trademark of Gaussian, Inc.
  
 This software contains proprietary and confidential information,
 including trade secrets, belonging to Gaussian, Inc.
  
 This software is provided under written license and may be
 used, copied, transmitted, or stored only in accord with that
 written license.
  
 The following legend is applicable only to US Government
 contracts under FAR:
  
                    RESTRICTED RIGHTS LEGEND
  
 Use, reproduction and disclosure by the US Government is
 subject to restrictions as set forth in subparagraphs (a)
 and (c) of the Commercial Computer Software - Restricted
 Rights clause in FAR 52.227-19.
  
 Gaussian, Inc.
 340 Quinnipiac St., Bldg. 40, Wallingford CT 06492
  
  
 ---------------------------------------------------------------
 Warning -- This program may not be used in any manner that
 competes with the business of Gaussian, Inc. or will provide
 assistance to any competitor of Gaussian, Inc.  The licensee
 of this program is prohibited from giving any competitor of
 Gaussian, Inc. access to this program.  By using this program,
 the user acknowledges that Gaussian, Inc. is engaged in the
 business of creating and licensing software in the field of
 computational chemistry and represents and warrants to the
 licensee that it is not a competitor of Gaussian, Inc. and that
 it will not use this program in any manner prohibited above.
 ---------------------------------------------------------------
  

 Cite this work as:
 Gaussian 16, Revision A.03,
 M. J. Frisch, G. W. Trucks, H. B. Schlegel, G. E. Scuseria, 
 M. A. Robb, J. R. Cheeseman, G. Scalmani, V. Barone, 
 G. A. Petersson, H. Nakatsuji, X. Li, M. Caricato, A. V. Marenich, 
 J. Bloino, B. G. Janesko, R. Gomperts, B. Mennucci, H. P. Hratchian, 
 J. V. Ortiz, A. F. Izmaylov, J. L. Sonnenberg, D. Williams-Young, 
 F. Ding, F. Lipparini, F. Egidi, J. Goings, B. Peng, A. Petrone, 
 T. Henderson, D. Ranasinghe, V. G. Zakrzewski, J. Gao, N. Rega, 
 G. Zheng, W. Liang, M. Hada, M. Ehara, K. Toyota, R. Fukuda, 
 J. Hasegawa, M. Ishida, T. Nakajima, Y. Honda, O. Kitao, H. Nakai, 
 T. Vreven, K. Throssell, J. A. Montgomery, Jr., J. E. Peralta, 
 F. Ogliaro, M. J. Bearpark, J. J. Heyd, E. N. Brothers, K. N. Kudin, 
 V. N. Staroverov, T. A. Keith, R. Kobayashi, J. Normand, 
 K. Raghavachari, A. P. Rendell, J. C. Burant, S. S. Iyengar, 
 J. Tomasi, M. Cossi, J. M. Millam, M. Klene, C. Adamo, R. Cammi, 
 J. W. Ochterski, R. L. Martin, K. Morokuma, O. Farkas, 
 J. B. Foresman, and D. J. Fox, Gaussian, Inc., Wallingford CT, 2016.
 
 ******************************************
 Gaussian 16:  ES64L-G16RevA.03 25-Dec-2016
                13-Mar-2020 
 ******************************************
 %mem=50GB
 %nprocshared=8
 Will use up to    8 processors via shared memory.
 ------------------------
 #p opt b3lyp/6-311g(d,p)
 ------------------------
 1/18=20,19=15,26=3,38=1/1,3;
 2/9=110,12=2,17=6,18=5,40=1/2;
 3/5=4,6=6,7=101,11=2,25=1,30=1,71=1,74=-5/1,2,3;
 4//1;
 5/5=2,38=5/2;
 6/7=2,8=2,9=2,10=2,28=1/1;
 7//1,2,3,16;
 1/18=20,19=15,26=3/3(2);
 2/9=110/2;
 99//99;
 2/9=110/2;
 3/5=4,6=6,7=101,11=2,25=1,30=1,71=1,74=-5/1,2,3;
 4/5=5,16=3,69=1/1;
 5/5=2,38=5/2;
 7//1,2,3,16;
 1/18=20,19=15,26=3/3(-5);
 2/9=110/2;
 6/7=2,8=2,9=2,10=2,19=2,28=1/1;
 99/9=1/99;
 Leave Link    1 at Fri Mar 13 12:43:12 2020, MaxMem=  6710886400 cpu:               0.2 elap:               0.0
 (Enter /apps/gaussian/g16-a03/l101.exe)
 -----------
 monomer.pdb
 -----------
 Symbolic Z-matrix:
 Charge =  0 Multiplicity = 1
 C                     80.417    0.094    -0.035 
 C                     81.014    1.383    -0.169 
 C                     82.392    1.365    -0.269 
 C                     82.9      0.052    -0.212 
 S                     81.608   -1.143    -0.039 
 O                     80.203    2.444    -0.305 
 H                     83.095    2.144    -0.549 
 C                     79.042   -0.221    -0.076 
 C                     78.384   -1.454    -0.044 
 C                     77.007   -1.365    -0.105 
 C                     76.479   -0.06     -0.212 
 S                     77.84     1.078    -0.183 
 O                     79.078   -2.524     0.278 
 H                     76.411   -2.264    -0.122 
 C                     79.671    3.134     0.799 
 H                     78.655    3.311     0.449 
 H                     79.645    2.473     1.67 
 C                     80.198    4.552     1.094 
 H                     80.296    4.761     2.157 
 H                     79.382    5.171     0.729 
 O                     81.389    4.933     0.438 
 C                     82.507    4.426     1.132 
 H                     82.621    4.785     2.155 
 H                     82.384    3.352     1.22 
 C                     83.729    4.694     0.408 
 H                     83.472    4.419    -0.61 
 H                     84.626    4.198     0.765 
 O                     83.898    6.125     0.241 
 C                     84.742    6.667     1.256 
 H                     84.632    6.354     2.283 
 H                     85.79     6.509     0.987 
 C                     84.43     8.132     1.155 
 H                     83.395    8.319     1.424 
 H                     84.706    8.63      0.232 
 O                     85.211    8.851     2.128 
 C                     84.868    10.219    2.146 
 H                     85.352    10.805    2.92 
 H                     85.095    10.742    1.222 
 H                     83.818    10.448    2.355 
 C                     79.331   -3.46     -0.744 
 H                     80.401   -3.369    -0.952 
 H                     78.858   -3.243    -1.709 
 C                     78.96    -4.861    -0.433 
 H                     79.051   -5.37     -1.39 
 H                     79.726   -5.396     0.13 
 O                     77.623   -5.109     0.148 
 C                     76.649   -4.876    -0.822 
 H                     76.807   -5.673    -1.557 
 H                     76.854   -3.91     -1.267 
 C                     75.296   -4.951    -0.181 
 H                     75.428   -4.704     0.873 
 H                     74.68    -4.179    -0.651 
 O                     74.872   -6.297    -0.263 
 C                     73.961   -6.663    -1.21 
 H                     73.438   -5.879    -1.756 
 H                     73.176   -7.153    -0.652 
 C                     74.569   -7.571    -2.201 
 H                     73.879   -7.475    -3.042 
 H                     75.428   -7.148    -2.716 
 O                     74.89    -8.847    -1.84 
 C                     73.672   -9.688    -1.705 
 H                     73.88    -10.742   -1.528 
 H                     72.954   -9.559    -2.507 
 H                     73.231   -9.387    -0.758 
 H                     83.859   -0.394    -0.386 
 H                     75.478    0.356    -0.042 
 
 ITRead=  0  0  0  0  0  0  0  0  0  0  0  0  0  0  0  0  0  0  0  0
 ITRead=  0  0  0  0  0  0  0  0  0  0  0  0  0  0  0  0  0  0  0  0
 ITRead=  0  0  0  0  0  0  0  0  0  0  0  0  0  0  0  0  0  0  0  0
 ITRead=  0  0  0  0  0  0
 MicOpt= -1 -1 -1 -1 -1 -1 -1 -1 -1 -1 -1 -1 -1 -1 -1 -1 -1 -1 -1 -1
 MicOpt= -1 -1 -1 -1 -1 -1 -1 -1 -1 -1 -1 -1 -1 -1 -1 -1 -1 -1 -1 -1
 MicOpt= -1 -1 -1 -1 -1 -1 -1 -1 -1 -1 -1 -1 -1 -1 -1 -1 -1 -1 -1 -1
 MicOpt= -1 -1 -1 -1 -1 -1
 NAtoms=     66 NQM=       66 NQMF=       0 NMMI=      0 NMMIF=      0
                NMic=       0 NMicF=      0.
                    Isotopes and Nuclear Properties:
 (Nuclear quadrupole moments (NQMom) in fm**2, nuclear magnetic moments (NMagM)
  in nuclear magnetons)

  Atom         1           2           3           4           5           6           7           8           9          10
 IAtWgt=          12          12          12          12          32          16           1          12          12          12
 AtmWgt=  12.0000000  12.0000000  12.0000000  12.0000000  31.9720718  15.9949146   1.0078250  12.0000000  12.0000000  12.0000000
 NucSpn=           0           0           0           0           0           0           1           0           0           0
 AtZEff=  -0.0000000  -0.0000000  -0.0000000  -0.0000000  -0.0000000  -0.0000000  -0.0000000  -0.0000000  -0.0000000  -0.0000000
 NQMom=    0.0000000   0.0000000   0.0000000   0.0000000   0.0000000   0.0000000   0.0000000   0.0000000   0.0000000   0.0000000
 NMagM=    0.0000000   0.0000000   0.0000000   0.0000000   0.0000000   0.0000000   2.7928460   0.0000000   0.0000000   0.0000000
 AtZNuc=   6.0000000   6.0000000   6.0000000   6.0000000  16.0000000   8.0000000   1.0000000   6.0000000   6.0000000   6.0000000

  Atom        11          12          13          14          15          16          17          18          19          20
 IAtWgt=          12          32          16           1          12           1           1          12           1           1
 AtmWgt=  12.0000000  31.9720718  15.9949146   1.0078250  12.0000000   1.0078250   1.0078250  12.0000000   1.0078250   1.0078250
 NucSpn=           0           0           0           1           0           1           1           0           1           1
 AtZEff=  -0.0000000  -0.0000000  -0.0000000  -0.0000000  -0.0000000  -0.0000000  -0.0000000  -0.0000000  -0.0000000  -0.0000000
 NQMom=    0.0000000   0.0000000   0.0000000   0.0000000   0.0000000   0.0000000   0.0000000   0.0000000   0.0000000   0.0000000
 NMagM=    0.0000000   0.0000000   0.0000000   2.7928460   0.0000000   2.7928460   2.7928460   0.0000000   2.7928460   2.7928460
 AtZNuc=   6.0000000  16.0000000   8.0000000   1.0000000   6.0000000   1.0000000   1.0000000   6.0000000   1.0000000   1.0000000

  Atom        21          22          23          24          25          26          27          28          29          30
 IAtWgt=          16          12           1           1          12           1           1          16          12           1
 AtmWgt=  15.9949146  12.0000000   1.0078250   1.0078250  12.0000000   1.0078250   1.0078250  15.9949146  12.0000000   1.0078250
 NucSpn=           0           0           1           1           0           1           1           0           0           1
 AtZEff=  -0.0000000  -0.0000000  -0.0000000  -0.0000000  -0.0000000  -0.0000000  -0.0000000  -0.0000000  -0.0000000  -0.0000000
 NQMom=    0.0000000   0.0000000   0.0000000   0.0000000   0.0000000   0.0000000   0.0000000   0.0000000   0.0000000   0.0000000
 NMagM=    0.0000000   0.0000000   2.7928460   2.7928460   0.0000000   2.7928460   2.7928460   0.0000000   0.0000000   2.7928460
 AtZNuc=   8.0000000   6.0000000   1.0000000   1.0000000   6.0000000   1.0000000   1.0000000   8.0000000   6.0000000   1.0000000

  Atom        31          32          33          34          35          36          37          38          39          40
 IAtWgt=           1          12           1           1          16          12           1           1           1          12
 AtmWgt=   1.0078250  12.0000000   1.0078250   1.0078250  15.9949146  12.0000000   1.0078250   1.0078250   1.0078250  12.0000000
 NucSpn=           1           0           1           1           0           0           1           1           1           0
 AtZEff=  -0.0000000  -0.0000000  -0.0000000  -0.0000000  -0.0000000  -0.0000000  -0.0000000  -0.0000000  -0.0000000  -0.0000000
 NQMom=    0.0000000   0.0000000   0.0000000   0.0000000   0.0000000   0.0000000   0.0000000   0.0000000   0.0000000   0.0000000
 NMagM=    2.7928460   0.0000000   2.7928460   2.7928460   0.0000000   0.0000000   2.7928460   2.7928460   2.7928460   0.0000000
 AtZNuc=   1.0000000   6.0000000   1.0000000   1.0000000   8.0000000   6.0000000   1.0000000   1.0000000   1.0000000   6.0000000

  Atom        41          42          43          44          45          46          47          48          49          50
 IAtWgt=           1           1          12           1           1          16          12           1           1          12
 AtmWgt=   1.0078250   1.0078250  12.0000000   1.0078250   1.0078250  15.9949146  12.0000000   1.0078250   1.0078250  12.0000000
 NucSpn=           1           1           0           1           1           0           0           1           1           0
 AtZEff=  -0.0000000  -0.0000000  -0.0000000  -0.0000000  -0.0000000  -0.0000000  -0.0000000  -0.0000000  -0.0000000  -0.0000000
 NQMom=    0.0000000   0.0000000   0.0000000   0.0000000   0.0000000   0.0000000   0.0000000   0.0000000   0.0000000   0.0000000
 NMagM=    2.7928460   2.7928460   0.0000000   2.7928460   2.7928460   0.0000000   0.0000000   2.7928460   2.7928460   0.0000000
 AtZNuc=   1.0000000   1.0000000   6.0000000   1.0000000   1.0000000   8.0000000   6.0000000   1.0000000   1.0000000   6.0000000

  Atom        51          52          53          54          55          56          57          58          59          60
 IAtWgt=           1           1          16          12           1           1          12           1           1          16
 AtmWgt=   1.0078250   1.0078250  15.9949146  12.0000000   1.0078250   1.0078250  12.0000000   1.0078250   1.0078250  15.9949146
 NucSpn=           1           1           0           0           1           1           0           1           1           0
 AtZEff=  -0.0000000  -0.0000000  -0.0000000  -0.0000000  -0.0000000  -0.0000000  -0.0000000  -0.0000000  -0.0000000  -0.0000000
 NQMom=    0.0000000   0.0000000   0.0000000   0.0000000   0.0000000   0.0000000   0.0000000   0.0000000   0.0000000   0.0000000
 NMagM=    2.7928460   2.7928460   0.0000000   0.0000000   2.7928460   2.7928460   0.0000000   2.7928460   2.7928460   0.0000000
 AtZNuc=   1.0000000   1.0000000   8.0000000   6.0000000   1.0000000   1.0000000   6.0000000   1.0000000   1.0000000   8.0000000

  Atom        61          62          63          64          65          66
 IAtWgt=          12           1           1           1           1           1
 AtmWgt=  12.0000000   1.0078250   1.0078250   1.0078250   1.0078250   1.0078250
 NucSpn=           0           1           1           1           1           1
 AtZEff=  -0.0000000  -0.0000000  -0.0000000  -0.0000000  -0.0000000  -0.0000000
 NQMom=    0.0000000   0.0000000   0.0000000   0.0000000   0.0000000   0.0000000
 NMagM=    0.0000000   2.7928460   2.7928460   2.7928460   2.7928460   2.7928460
 AtZNuc=   6.0000000   1.0000000   1.0000000   1.0000000   1.0000000   1.0000000
 Leave Link  101 at Fri Mar 13 12:43:13 2020, MaxMem=  6710886400 cpu:               6.6 elap:               0.8
 (Enter /apps/gaussian/g16-a03/l103.exe)

 GradGradGradGradGradGradGradGradGradGradGradGradGradGradGradGradGradGrad
 Berny optimization.
 Initialization pass.
                           ----------------------------
                           !    Initial Parameters    !
                           ! (Angstroms and Degrees)  !
 --------------------------                            --------------------------
 ! Name  Definition              Value          Derivative Info.                !
 --------------------------------------------------------------------------------
 ! R1    R(1,2)                  1.4268         estimate D2E/DX2                !
 ! R2    R(1,5)                  1.7172         estimate D2E/DX2                !
 ! R3    R(1,8)                  1.4112         estimate D2E/DX2                !
 ! R4    R(2,3)                  1.3817         estimate D2E/DX2                !
 ! R5    R(2,6)                  1.3424         estimate D2E/DX2                !
 ! R6    R(3,4)                  1.409          estimate D2E/DX2                !
 ! R7    R(3,7)                  1.086          estimate D2E/DX2                !
 ! R8    R(4,5)                  1.7684         estimate D2E/DX2                !
 ! R9    R(4,65)                 1.0719         estimate D2E/DX2                !
 ! R10   R(6,15)                 1.4064         estimate D2E/DX2                !
 ! R11   R(8,9)                  1.398          estimate D2E/DX2                !
 ! R12   R(8,12)                 1.773          estimate D2E/DX2                !
 ! R13   R(9,10)                 1.3812         estimate D2E/DX2                !
 ! R14   R(9,13)                 1.3154         estimate D2E/DX2                !
 ! R15   R(10,11)                1.4118         estimate D2E/DX2                !
 ! R16   R(10,14)                1.0788         estimate D2E/DX2                !
 ! R17   R(11,12)                1.7743         estimate D2E/DX2                !
 ! R18   R(11,66)                1.0972         estimate D2E/DX2                !
 ! R19   R(13,40)                1.4088         estimate D2E/DX2                !
 ! R20   R(15,16)                1.0891         estimate D2E/DX2                !
 ! R21   R(15,17)                1.0937         estimate D2E/DX2                !
 ! R22   R(15,18)                1.5413         estimate D2E/DX2                !
 ! R23   R(18,19)                1.0878         estimate D2E/DX2                !
 ! R24   R(18,20)                1.0873         estimate D2E/DX2                !
 ! R25   R(18,21)                1.4121         estimate D2E/DX2                !
 ! R26   R(21,22)                1.4102         estimate D2E/DX2                !
 ! R27   R(22,23)                1.0901         estimate D2E/DX2                !
 ! R28   R(22,24)                1.0846         estimate D2E/DX2                !
 ! R29   R(22,25)                1.4454         estimate D2E/DX2                !
 ! R30   R(25,26)                1.0854         estimate D2E/DX2                !
 ! R31   R(25,27)                1.0854         estimate D2E/DX2                !
 ! R32   R(25,28)                1.4506         estimate D2E/DX2                !
 ! R33   R(28,29)                1.427          estimate D2E/DX2                !
 ! R34   R(29,30)                1.0793         estimate D2E/DX2                !
 ! R35   R(29,31)                1.0934         estimate D2E/DX2                !
 ! R36   R(29,32)                1.5013         estimate D2E/DX2                !
 ! R37   R(32,33)                1.0856         estimate D2E/DX2                !
 ! R38   R(32,34)                1.0845         estimate D2E/DX2                !
 ! R39   R(32,35)                1.44           estimate D2E/DX2                !
 ! R40   R(35,36)                1.4105         estimate D2E/DX2                !
 ! R41   R(36,37)                1.0848         estimate D2E/DX2                !
 ! R42   R(36,38)                1.0857         estimate D2E/DX2                !
 ! R43   R(36,39)                1.0948         estimate D2E/DX2                !
 ! R44   R(40,41)                1.0938         estimate D2E/DX2                !
 ! R45   R(40,42)                1.0964         estimate D2E/DX2                !
 ! R46   R(40,43)                1.4823         estimate D2E/DX2                !
 ! R47   R(43,44)                1.0878         estimate D2E/DX2                !
 ! R48   R(43,45)                1.0908         estimate D2E/DX2                !
 ! R49   R(43,46)                1.4787         estimate D2E/DX2                !
 ! R50   R(46,47)                1.3942         estimate D2E/DX2                !
 ! R51   R(47,48)                1.0956         estimate D2E/DX2                !
 ! R52   R(47,49)                1.0831         estimate D2E/DX2                !
 ! R53   R(47,50)                1.499          estimate D2E/DX2                !
 ! R54   R(50,51)                1.0906         estimate D2E/DX2                !
 ! R55   R(50,52)                1.0938         estimate D2E/DX2                !
 ! R56   R(50,53)                1.4136         estimate D2E/DX2                !
 ! R57   R(53,54)                1.3641         estimate D2E/DX2                !
 ! R58   R(54,55)                1.0892         estimate D2E/DX2                !
 ! R59   R(54,56)                1.0806         estimate D2E/DX2                !
 ! R60   R(54,57)                1.4752         estimate D2E/DX2                !
 ! R61   R(57,58)                1.0921         estimate D2E/DX2                !
 ! R62   R(57,59)                1.0872         estimate D2E/DX2                !
 ! R63   R(57,60)                1.3644         estimate D2E/DX2                !
 ! R64   R(60,61)                1.4863         estimate D2E/DX2                !
 ! R65   R(61,62)                1.0888         estimate D2E/DX2                !
 ! R66   R(61,63)                1.0841         estimate D2E/DX2                !
 ! R67   R(61,64)                1.0871         estimate D2E/DX2                !
 ! A1    A(2,1,5)              111.1223         estimate D2E/DX2                !
 ! A2    A(2,1,8)              127.3432         estimate D2E/DX2                !
 ! A3    A(5,1,8)              120.9922         estimate D2E/DX2                !
 ! A4    A(1,2,3)              114.3495         estimate D2E/DX2                !
 ! A5    A(1,2,6)              118.0843         estimate D2E/DX2                !
 ! A6    A(3,2,6)              127.2639         estimate D2E/DX2                !
 ! A7    A(2,3,4)              111.6401         estimate D2E/DX2                !
 ! A8    A(2,3,7)              130.9103         estimate D2E/DX2                !
 ! A9    A(4,3,7)              116.4534         estimate D2E/DX2                !
 ! A10   A(3,4,5)              111.7315         estimate D2E/DX2                !
 ! A11   A(3,4,65)             134.7296         estimate D2E/DX2                !
 ! A12   A(5,4,65)             112.8538         estimate D2E/DX2                !
 ! A13   A(1,5,4)               91.1557         estimate D2E/DX2                !
 ! A14   A(2,6,15)             122.4653         estimate D2E/DX2                !
 ! A15   A(1,8,9)              130.9058         estimate D2E/DX2                !
 ! A16   A(1,8,12)             119.9176         estimate D2E/DX2                !
 ! A17   A(9,8,12)             109.1765         estimate D2E/DX2                !
 ! A18   A(8,9,10)             114.2932         estimate D2E/DX2                !
 ! A19   A(8,9,13)             118.3421         estimate D2E/DX2                !
 ! A20   A(10,9,13)            126.1016         estimate D2E/DX2                !
 ! A21   A(9,10,11)            115.8329         estimate D2E/DX2                !
 ! A22   A(9,10,14)            119.8545         estimate D2E/DX2                !
 ! A23   A(11,10,14)           124.2286         estimate D2E/DX2                !
 ! A24   A(10,11,12)           107.7424         estimate D2E/DX2                !
 ! A25   A(10,11,66)           132.8341         estimate D2E/DX2                !
 ! A26   A(12,11,66)           117.0054         estimate D2E/DX2                !
 ! A27   A(8,12,11)             92.9292         estimate D2E/DX2                !
 ! A28   A(9,13,40)            117.2346         estimate D2E/DX2                !
 ! A29   A(6,15,16)            100.3904         estimate D2E/DX2                !
 ! A30   A(6,15,17)            109.7318         estimate D2E/DX2                !
 ! A31   A(6,15,18)            118.1828         estimate D2E/DX2                !
 ! A32   A(16,15,17)           109.3886         estimate D2E/DX2                !
 ! A33   A(16,15,18)           103.3543         estimate D2E/DX2                !
 ! A34   A(17,15,18)           114.3134         estimate D2E/DX2                !
 ! A35   A(15,18,19)           113.2421         estimate D2E/DX2                !
 ! A36   A(15,18,20)           101.7069         estimate D2E/DX2                !
 ! A37   A(15,18,21)           116.597          estimate D2E/DX2                !
 ! A38   A(19,18,20)           106.6351         estimate D2E/DX2                !
 ! A39   A(19,18,21)           109.0355         estimate D2E/DX2                !
 ! A40   A(20,18,21)           108.8702         estimate D2E/DX2                !
 ! A41   A(18,21,22)           110.0626         estimate D2E/DX2                !
 ! A42   A(21,22,23)           115.2351         estimate D2E/DX2                !
 ! A43   A(21,22,24)           107.8205         estimate D2E/DX2                !
 ! A44   A(21,22,25)           110.9215         estimate D2E/DX2                !
 ! A45   A(23,22,24)           105.178          estimate D2E/DX2                !
 ! A46   A(23,22,25)           108.6974         estimate D2E/DX2                !
 ! A47   A(24,22,25)           108.6699         estimate D2E/DX2                !
 ! A48   A(22,25,26)           102.8641         estimate D2E/DX2                !
 ! A49   A(22,25,27)           116.6926         estimate D2E/DX2                !
 ! A50   A(22,25,28)           109.8201         estimate D2E/DX2                !
 ! A51   A(26,25,27)           112.8553         estimate D2E/DX2                !
 ! A52   A(26,25,28)            99.7621         estimate D2E/DX2                !
 ! A53   A(27,25,28)           113.1033         estimate D2E/DX2                !
 ! A54   A(25,28,29)           111.2052         estimate D2E/DX2                !
 ! A55   A(28,29,30)           120.4249         estimate D2E/DX2                !
 ! A56   A(28,29,31)           109.6943         estimate D2E/DX2                !
 ! A57   A(28,29,32)           101.5296         estimate D2E/DX2                !
 ! A58   A(30,29,31)           106.8507         estimate D2E/DX2                !
 ! A59   A(30,29,32)           109.0169         estimate D2E/DX2                !
 ! A60   A(31,29,32)           108.8835         estimate D2E/DX2                !
 ! A61   A(29,32,33)           110.4604         estimate D2E/DX2                !
 ! A62   A(29,32,34)           116.903          estimate D2E/DX2                !
 ! A63   A(29,32,35)           109.2122         estimate D2E/DX2                !
 ! A64   A(33,32,34)           111.9887         estimate D2E/DX2                !
 ! A65   A(33,32,35)           105.286          estimate D2E/DX2                !
 ! A66   A(34,32,35)           101.9914         estimate D2E/DX2                !
 ! A67   A(32,35,36)           111.1616         estimate D2E/DX2                !
 ! A68   A(35,36,37)           115.122          estimate D2E/DX2                !
 ! A69   A(35,36,38)           113.9221         estimate D2E/DX2                !
 ! A70   A(35,36,39)           116.0105         estimate D2E/DX2                !
 ! A71   A(37,36,38)           104.6979         estimate D2E/DX2                !
 ! A72   A(37,36,39)           100.2946         estimate D2E/DX2                !
 ! A73   A(38,36,39)           105.2019         estimate D2E/DX2                !
 ! A74   A(13,40,41)           104.9726         estimate D2E/DX2                !
 ! A75   A(13,40,42)           115.4389         estimate D2E/DX2                !
 ! A76   A(13,40,43)           115.5197         estimate D2E/DX2                !
 ! A77   A(41,40,42)           103.7795         estimate D2E/DX2                !
 ! A78   A(41,40,43)           111.3072         estimate D2E/DX2                !
 ! A79   A(42,40,43)           105.2933         estimate D2E/DX2                !
 ! A80   A(40,43,44)           103.6946         estimate D2E/DX2                !
 ! A81   A(40,43,45)           113.3334         estimate D2E/DX2                !
 ! A82   A(40,43,46)           117.8561         estimate D2E/DX2                !
 ! A83   A(44,43,45)            99.5455         estimate D2E/DX2                !
 ! A84   A(44,43,46)           110.0499         estimate D2E/DX2                !
 ! A85   A(45,43,46)           110.4792         estimate D2E/DX2                !
 ! A86   A(43,46,47)           109.2844         estimate D2E/DX2                !
 ! A87   A(46,47,48)           104.1473         estimate D2E/DX2                !
 ! A88   A(46,47,49)           107.6173         estimate D2E/DX2                !
 ! A89   A(46,47,50)           108.9461         estimate D2E/DX2                !
 ! A90   A(48,47,49)           110.2341         estimate D2E/DX2                !
 ! A91   A(48,47,50)           112.3724         estimate D2E/DX2                !
 ! A92   A(49,47,50)           113.0245         estimate D2E/DX2                !
 ! A93   A(47,50,51)           107.0191         estimate D2E/DX2                !
 ! A94   A(47,50,52)           106.8138         estimate D2E/DX2                !
 ! A95   A(47,50,53)           107.0713         estimate D2E/DX2                !
 ! A96   A(51,50,52)           108.881          estimate D2E/DX2                !
 ! A97   A(51,50,53)           107.9403         estimate D2E/DX2                !
 ! A98   A(52,50,53)           118.5689         estimate D2E/DX2                !
 ! A99   A(50,53,54)           119.741          estimate D2E/DX2                !
 ! A100  A(53,54,55)           118.397          estimate D2E/DX2                !
 ! A101  A(53,54,56)           104.379          estimate D2E/DX2                !
 ! A102  A(53,54,57)           110.8714         estimate D2E/DX2                !
 ! A103  A(55,54,56)           103.6762         estimate D2E/DX2                !
 ! A104  A(55,54,57)           107.7099         estimate D2E/DX2                !
 ! A105  A(56,54,57)           111.5425         estimate D2E/DX2                !
 ! A106  A(54,57,58)           101.7019         estimate D2E/DX2                !
 ! A107  A(54,57,59)           113.8517         estimate D2E/DX2                !
 ! A108  A(54,57,60)           119.6606         estimate D2E/DX2                !
 ! A109  A(58,57,59)            95.7516         estimate D2E/DX2                !
 ! A110  A(58,57,60)           115.7615         estimate D2E/DX2                !
 ! A111  A(59,57,60)           107.6566         estimate D2E/DX2                !
 ! A112  A(57,60,61)           111.1258         estimate D2E/DX2                !
 ! A113  A(60,61,62)           113.9516         estimate D2E/DX2                !
 ! A114  A(60,61,63)           114.0924         estimate D2E/DX2                !
 ! A115  A(60,61,64)           104.7667         estimate D2E/DX2                !
 ! A116  A(62,61,63)           111.2204         estimate D2E/DX2                !
 ! A117  A(62,61,64)           101.7655         estimate D2E/DX2                !
 ! A118  A(63,61,64)           110.0473         estimate D2E/DX2                !
 ! D1    D(5,1,2,3)             -0.106          estimate D2E/DX2                !
 ! D2    D(5,1,2,6)            174.0403         estimate D2E/DX2                !
 ! D3    D(8,1,2,3)           -171.6346         estimate D2E/DX2                !
 ! D4    D(8,1,2,6)              2.5117         estimate D2E/DX2                !
 ! D5    D(2,1,5,4)              0.2174         estimate D2E/DX2                !
 ! D6    D(8,1,5,4)            172.365          estimate D2E/DX2                !
 ! D7    D(2,1,8,9)            175.1122         estimate D2E/DX2                !
 ! D8    D(2,1,8,12)            -5.0342         estimate D2E/DX2                !
 ! D9    D(5,1,8,9)              4.3367         estimate D2E/DX2                !
 ! D10   D(5,1,8,12)          -175.8097         estimate D2E/DX2                !
 ! D11   D(1,2,3,4)             -0.1097         estimate D2E/DX2                !
 ! D12   D(1,2,3,7)            167.8329         estimate D2E/DX2                !
 ! D13   D(6,2,3,4)           -173.6179         estimate D2E/DX2                !
 ! D14   D(6,2,3,7)             -5.6754         estimate D2E/DX2                !
 ! D15   D(1,2,6,15)            86.8058         estimate D2E/DX2                !
 ! D16   D(3,2,6,15)           -99.8988         estimate D2E/DX2                !
 ! D17   D(2,3,4,5)              0.2718         estimate D2E/DX2                !
 ! D18   D(2,3,4,65)           169.8004         estimate D2E/DX2                !
 ! D19   D(7,3,4,5)           -169.5721         estimate D2E/DX2                !
 ! D20   D(7,3,4,65)            -0.0435         estimate D2E/DX2                !
 ! D21   D(3,4,5,1)             -0.2828         estimate D2E/DX2                !
 ! D22   D(65,4,5,1)          -172.2282         estimate D2E/DX2                !
 ! D23   D(2,6,15,16)         -139.1588         estimate D2E/DX2                !
 ! D24   D(2,6,15,17)          -24.0506         estimate D2E/DX2                !
 ! D25   D(2,6,15,18)          109.455          estimate D2E/DX2                !
 ! D26   D(1,8,9,10)          -179.9705         estimate D2E/DX2                !
 ! D27   D(1,8,9,13)            12.0765         estimate D2E/DX2                !
 ! D28   D(12,8,9,10)            0.1638         estimate D2E/DX2                !
 ! D29   D(12,8,9,13)         -167.7892         estimate D2E/DX2                !
 ! D30   D(1,8,12,11)          179.1685         estimate D2E/DX2                !
 ! D31   D(9,8,12,11)           -0.9486         estimate D2E/DX2                !
 ! D32   D(8,9,10,11)            1.0208         estimate D2E/DX2                !
 ! D33   D(8,9,10,14)          177.8272         estimate D2E/DX2                !
 ! D34   D(13,9,10,11)         167.8795         estimate D2E/DX2                !
 ! D35   D(13,9,10,14)         -15.3141         estimate D2E/DX2                !
 ! D36   D(8,9,13,40)         -109.998          estimate D2E/DX2                !
 ! D37   D(10,9,13,40)          83.6199         estimate D2E/DX2                !
 ! D38   D(9,10,11,12)          -1.669          estimate D2E/DX2                !
 ! D39   D(9,10,11,66)        -162.8883         estimate D2E/DX2                !
 ! D40   D(14,10,11,12)       -178.3188         estimate D2E/DX2                !
 ! D41   D(14,10,11,66)         20.4619         estimate D2E/DX2                !
 ! D42   D(10,11,12,8)           1.4485         estimate D2E/DX2                !
 ! D43   D(66,11,12,8)         166.0825         estimate D2E/DX2                !
 ! D44   D(9,13,40,41)         109.283          estimate D2E/DX2                !
 ! D45   D(9,13,40,42)          -4.3102         estimate D2E/DX2                !
 ! D46   D(9,13,40,43)        -127.728          estimate D2E/DX2                !
 ! D47   D(6,15,18,19)        -142.3116         estimate D2E/DX2                !
 ! D48   D(6,15,18,20)         103.6611         estimate D2E/DX2                !
 ! D49   D(6,15,18,21)         -14.5771         estimate D2E/DX2                !
 ! D50   D(16,15,18,19)        107.9642         estimate D2E/DX2                !
 ! D51   D(16,15,18,20)         -6.0632         estimate D2E/DX2                !
 ! D52   D(16,15,18,21)       -124.3013         estimate D2E/DX2                !
 ! D53   D(17,15,18,19)        -10.8297         estimate D2E/DX2                !
 ! D54   D(17,15,18,20)       -124.857          estimate D2E/DX2                !
 ! D55   D(17,15,18,21)        116.9048         estimate D2E/DX2                !
 ! D56   D(15,18,21,22)        -81.8491         estimate D2E/DX2                !
 ! D57   D(19,18,21,22)         47.9128         estimate D2E/DX2                !
 ! D58   D(20,18,21,22)        163.8867         estimate D2E/DX2                !
 ! D59   D(18,21,22,23)        -61.5216         estimate D2E/DX2                !
 ! D60   D(18,21,22,24)         55.5778         estimate D2E/DX2                !
 ! D61   D(18,21,22,25)        174.4512         estimate D2E/DX2                !
 ! D62   D(21,22,25,26)        -45.5474         estimate D2E/DX2                !
 ! D63   D(21,22,25,27)       -169.655          estimate D2E/DX2                !
 ! D64   D(21,22,25,28)         59.9493         estimate D2E/DX2                !
 ! D65   D(23,22,25,26)       -173.2264         estimate D2E/DX2                !
 ! D66   D(23,22,25,27)         62.6661         estimate D2E/DX2                !
 ! D67   D(23,22,25,28)        -67.7297         estimate D2E/DX2                !
 ! D68   D(24,22,25,26)         72.8127         estimate D2E/DX2                !
 ! D69   D(24,22,25,27)        -51.2948         estimate D2E/DX2                !
 ! D70   D(24,22,25,28)        178.3094         estimate D2E/DX2                !
 ! D71   D(22,25,28,29)         95.9903         estimate D2E/DX2                !
 ! D72   D(26,25,28,29)       -156.4232         estimate D2E/DX2                !
 ! D73   D(27,25,28,29)        -36.2993         estimate D2E/DX2                !
 ! D74   D(25,28,29,30)        -42.7115         estimate D2E/DX2                !
 ! D75   D(25,28,29,31)         81.8485         estimate D2E/DX2                !
 ! D76   D(25,28,29,32)       -163.0738         estimate D2E/DX2                !
 ! D77   D(28,29,32,33)         64.7169         estimate D2E/DX2                !
 ! D78   D(28,29,32,34)        -64.8845         estimate D2E/DX2                !
 ! D79   D(28,29,32,35)       -179.9424         estimate D2E/DX2                !
 ! D80   D(30,29,32,33)        -63.379          estimate D2E/DX2                !
 ! D81   D(30,29,32,34)        167.0196         estimate D2E/DX2                !
 ! D82   D(30,29,32,35)         51.9617         estimate D2E/DX2                !
 ! D83   D(31,29,32,33)       -179.6071         estimate D2E/DX2                !
 ! D84   D(31,29,32,34)         50.7916         estimate D2E/DX2                !
 ! D85   D(31,29,32,35)        -64.2664         estimate D2E/DX2                !
 ! D86   D(29,32,35,36)       -175.0631         estimate D2E/DX2                !
 ! D87   D(33,32,35,36)        -56.4434         estimate D2E/DX2                !
 ! D88   D(34,32,35,36)         60.6129         estimate D2E/DX2                !
 ! D89   D(32,35,36,37)        174.5698         estimate D2E/DX2                !
 ! D90   D(32,35,36,38)        -64.4614         estimate D2E/DX2                !
 ! D91   D(32,35,36,39)         57.9267         estimate D2E/DX2                !
 ! D92   D(13,40,43,44)        169.5329         estimate D2E/DX2                !
 ! D93   D(13,40,43,45)        -83.5495         estimate D2E/DX2                !
 ! D94   D(13,40,43,46)         47.6694         estimate D2E/DX2                !
 ! D95   D(41,40,43,44)        -70.8967         estimate D2E/DX2                !
 ! D96   D(41,40,43,45)         36.0209         estimate D2E/DX2                !
 ! D97   D(41,40,43,46)        167.2398         estimate D2E/DX2                !
 ! D98   D(42,40,43,44)         40.9238         estimate D2E/DX2                !
 ! D99   D(42,40,43,45)        147.8414         estimate D2E/DX2                !
 ! D100  D(42,40,43,46)        -80.9397         estimate D2E/DX2                !
 ! D101  D(40,43,46,47)         70.1486         estimate D2E/DX2                !
 ! D102  D(44,43,46,47)        -48.4015         estimate D2E/DX2                !
 ! D103  D(45,43,46,47)       -157.3513         estimate D2E/DX2                !
 ! D104  D(43,46,47,48)         67.3351         estimate D2E/DX2                !
 ! D105  D(43,46,47,49)        -49.6828         estimate D2E/DX2                !
 ! D106  D(43,46,47,50)       -172.5629         estimate D2E/DX2                !
 ! D107  D(46,47,50,51)         25.8175         estimate D2E/DX2                !
 ! D108  D(46,47,50,52)        142.3071         estimate D2E/DX2                !
 ! D109  D(46,47,50,53)        -89.7122         estimate D2E/DX2                !
 ! D110  D(48,47,50,51)        140.6991         estimate D2E/DX2                !
 ! D111  D(48,47,50,52)       -102.8113         estimate D2E/DX2                !
 ! D112  D(48,47,50,53)         25.1694         estimate D2E/DX2                !
 ! D113  D(49,47,50,51)        -93.7584         estimate D2E/DX2                !
 ! D114  D(49,47,50,52)         22.7312         estimate D2E/DX2                !
 ! D115  D(49,47,50,53)        150.7119         estimate D2E/DX2                !
 ! D116  D(47,50,53,54)       -102.0812         estimate D2E/DX2                !
 ! D117  D(51,50,53,54)        143.005          estimate D2E/DX2                !
 ! D118  D(52,50,53,54)         18.7001         estimate D2E/DX2                !
 ! D119  D(50,53,54,55)        -11.5947         estimate D2E/DX2                !
 ! D120  D(50,53,54,56)       -126.1811         estimate D2E/DX2                !
 ! D121  D(50,53,54,57)        113.5912         estimate D2E/DX2                !
 ! D122  D(53,54,57,58)       -160.1811         estimate D2E/DX2                !
 ! D123  D(53,54,57,59)        -58.4408         estimate D2E/DX2                !
 ! D124  D(53,54,57,60)         70.8624         estimate D2E/DX2                !
 ! D125  D(55,54,57,58)        -29.1814         estimate D2E/DX2                !
 ! D126  D(55,54,57,59)         72.5589         estimate D2E/DX2                !
 ! D127  D(55,54,57,60)       -158.1378         estimate D2E/DX2                !
 ! D128  D(56,54,57,58)         83.9536         estimate D2E/DX2                !
 ! D129  D(56,54,57,59)       -174.3061         estimate D2E/DX2                !
 ! D130  D(56,54,57,60)        -45.0029         estimate D2E/DX2                !
 ! D131  D(54,57,60,61)         73.6008         estimate D2E/DX2                !
 ! D132  D(58,57,60,61)        -48.6742         estimate D2E/DX2                !
 ! D133  D(59,57,60,61)       -154.3616         estimate D2E/DX2                !
 ! D134  D(57,60,61,62)        173.4849         estimate D2E/DX2                !
 ! D135  D(57,60,61,63)         44.2505         estimate D2E/DX2                !
 ! D136  D(57,60,61,64)        -76.1604         estimate D2E/DX2                !
 --------------------------------------------------------------------------------
 Trust Radius=3.00D-01 FncErr=1.00D-07 GrdErr=1.00D-06 EigMax=2.50D+02 EigMin=1.00D-04
 Number of steps in this run=    331 maximum allowed number of steps=    396.
 GradGradGradGradGradGradGradGradGradGradGradGradGradGradGradGradGradGrad

 Leave Link  103 at Fri Mar 13 12:43:13 2020, MaxMem=  6710886400 cpu:               0.1 elap:               0.0
 (Enter /apps/gaussian/g16-a03/l202.exe)
 Stoichiometry    C22H34O8S2
 Framework group  C1[X(C22H34O8S2)]
 Deg. of freedom   192
 Full point group                 C1      NOp   1
 Largest Abelian subgroup         C1      NOp   1
 Largest concise Abelian subgroup C1      NOp   1
                         Standard orientation:                         
 ---------------------------------------------------------------------
 Center     Atomic      Atomic             Coordinates (Angstroms)
 Number     Number       Type             X           Y           Z
 ---------------------------------------------------------------------
      1          6           0       -0.530388    0.655313   -0.052463
      2          6           0       -1.907382    0.513089   -0.398216
      3          6           0       -2.597407    1.706518   -0.492031
      4          6           0       -1.766138    2.810378   -0.216773
      5         16           0       -0.110947    2.308002    0.150896
      6          8           0       -2.357357   -0.712611   -0.709854
      7          1           0       -3.580109    1.929951   -0.896784
      8          6           0        0.458096   -0.351825   -0.042291
      9          6           0        1.834227   -0.281478    0.193488
     10          6           0        2.486739   -1.496430    0.116739
     11          6           0        1.679699   -2.608837   -0.206519
     12         16           0        0.007917   -2.036038   -0.365430
     13          8           0        2.326581    0.832705    0.689880
     14          1           0        3.556468   -1.540742    0.248728
     15          6           0       -2.815972   -1.618466    0.263306
     16          1           0       -2.385112   -2.545371   -0.112584
     17          1           0       -2.369359   -1.377120    1.232082
     18          6           0       -4.325516   -1.924486    0.319029
     19          1           0       -4.702575   -2.041888    1.332585
     20          1           0       -4.368740   -2.906900   -0.144909
     21          8           0       -5.175058   -1.046973   -0.389651
     22          6           0       -5.430140    0.106482    0.380468
     23          1           0       -5.936081   -0.070934    1.329654
     24          1           0       -4.474924    0.546429    0.645720
     25          6           0       -6.191207    1.074556   -0.376428
     26          1           0       -5.681989    1.086340   -1.334842
     27          1           0       -6.292600    2.063476    0.059268
     28          8           0       -7.459584    0.497106   -0.778898
     29          6           0       -8.499378    0.848895    0.132912
     30          1           0       -8.323681    0.825824    1.197523
     31          1           0       -8.875520    1.847739   -0.104693
     32          6           0       -9.554603   -0.162124   -0.210760
     33          1           0       -9.209641   -1.164801    0.022039
     34          1           0       -9.987253   -0.101792   -1.203374
     35          8           0      -10.704472    0.048551    0.630114
     36          6           0      -11.678723   -0.949464    0.419877
     37          1           0      -12.533587   -0.906190    1.086258
     38          1           0      -12.106685   -0.943702   -0.577945
     39          1           0      -11.352789   -1.981270    0.586507
     40          6           0        3.126182    1.619948   -0.161869
     41          1           0        2.520486    2.504078   -0.380711
     42          1           0        3.326798    1.189688   -1.150136
     43          6           0        4.454430    1.997005    0.377342
     44          1           0        4.970225    2.420653   -0.481546
     45          1           0        4.425135    2.876143    1.022484
     46          8           0        5.278893    0.933122    0.989754
     47          6           0        5.728267    0.067737   -0.006758
     48          1           0        6.420005    0.677199   -0.598749
     49          1           0        4.871506   -0.215312   -0.605966
     50          6           0        6.407083   -1.104080    0.636022
     51          1           0        5.981583   -1.211242    1.634428
     52          1           0        6.145587   -1.985393    0.043360
     53          8           0        7.772223   -0.765977    0.778491
     54          6           0        8.689337   -1.271449   -0.095629
     55          1           0        8.379935   -2.072929   -0.765107
     56          1           0        9.432484   -1.737962    0.535075
     57          6           0        9.275705   -0.198538   -0.921004
     58          1           0        9.673866   -0.762534   -1.767156
     59          1           0        8.544221    0.361787   -1.498066
     60          8           0       10.130535    0.700055   -0.352378
     61          6           0       11.454684    0.081997   -0.080964
     62          1           0       12.207734    0.786158    0.269152
     63          1           0       11.834194   -0.526290   -0.894185
     64          1           0       11.297961   -0.532287    0.802203
     65          1           0       -1.866975    3.873139   -0.312915
     66          1           0        1.828260   -3.691635   -0.109385
 ---------------------------------------------------------------------
 Rotational constants (GHZ):           0.4664954           0.0277000           0.0264916
 Leave Link  202 at Fri Mar 13 12:43:13 2020, MaxMem=  6710886400 cpu:               0.0 elap:               0.0
 (Enter /apps/gaussian/g16-a03/l301.exe)
 Standard basis: 6-311G(d,p) (5D, 7F)
 Ernie: Thresh=  0.10000D-02 Tol=  0.10000D-05 Strict=F.
 There are   828 symmetry adapted cartesian basis functions of A   symmetry.
 There are   796 symmetry adapted basis functions of A   symmetry.
   796 basis functions,  1324 primitive gaussians,   828 cartesian basis functions
   131 alpha electrons      131 beta electrons
       nuclear repulsion energy      3545.1195110948 Hartrees.
 IExCor=  402 DFT=T Ex+Corr=B3LYP ExCW=0 ScaHFX=  0.200000
 ScaDFX=  0.800000  0.720000  1.000000  0.810000 ScalE2=  1.000000  1.000000
 IRadAn=      5 IRanWt=     -1 IRanGd=            0 ICorTp=0 IEmpDi=  4
 NAtoms=   66 NActive=   66 NUniq=   66 SFac= 1.00D+00 NAtFMM=   60 NAOKFM=T Big=T
 Integral buffers will be    131072 words long.
 Raffenetti 2 integral format.
 Two-electron integral symmetry is turned on.
 Leave Link  301 at Fri Mar 13 12:43:14 2020, MaxMem=  6710886400 cpu:               0.5 elap:               0.1
 (Enter /apps/gaussian/g16-a03/l302.exe)
 NPDir=0 NMtPBC=     1 NCelOv=     1 NCel=       1 NClECP=     1 NCelD=      1
         NCelK=      1 NCelE2=     1 NClLst=     1 CellRange=     0.0.
 One-electron integrals computed using PRISM.
 One-electron integral symmetry used in STVInt
 NBasis=   796 RedAO= T EigKep=  3.07D-04  NBF=   796
 NBsUse=   796 1.00D-06 EigRej= -1.00D+00 NBFU=   796
 Precomputing XC quadrature grid using
 IXCGrd= 4 IRadAn=           5 IRanWt=          -1 IRanGd=           0 AccXCQ= 0.00D+00.
 Generated NRdTot=       0 NPtTot=           0 NUsed=           0 NTot=          32
 NSgBfM=   672   661   668   672   672 MxSgAt=    66 MxSgA2=    66.
 Leave Link  302 at Fri Mar 13 12:43:16 2020, MaxMem=  6710886400 cpu:              16.6 elap:               2.1
 (Enter /apps/gaussian/g16-a03/l303.exe)
 DipDrv:  MaxL=1.
 Leave Link  303 at Fri Mar 13 12:43:16 2020, MaxMem=  6710886400 cpu:               1.2 elap:               0.2
 (Enter /apps/gaussian/g16-a03/l401.exe)
 ExpMin= 7.71D-02 ExpMax= 9.34D+04 ExpMxC= 3.17D+03 IAcc=3 IRadAn=         5 AccDes= 0.00D+00
 Harris functional with IExCor=  402 and IRadAn=       5 diagonalized for initial guess.
 HarFok:  IExCor=  402 AccDes= 0.00D+00 IRadAn=         5 IDoV= 1 UseB2=F ITyADJ=14
 ICtDFT=  3500011 ScaDFX=  1.000000  1.000000  1.000000  1.000000
 FoFCou: FMM=F IPFlag=           0 FMFlag=      100000 FMFlg1=        2001
         NFxFlg=           0 DoJE=T BraDBF=F KetDBF=T FulRan=T
         wScrn=  0.000000 ICntrl=       500 IOpCl=  0 I1Cent=   200000004 NGrid=           0
         NMat0=    1 NMatS0=      1 NMatT0=    0 NMatD0=    1 NMtDS0=    0 NMtDT0=    0
 Petite list used in FoFCou.
 Harris En= -2257.12492393170    
 JPrj=0 DoOrth=F DoCkMO=F.
 Leave Link  401 at Fri Mar 13 12:43:26 2020, MaxMem=  6710886400 cpu:              80.0 elap:              10.0
 (Enter /apps/gaussian/g16-a03/l502.exe)
 Integral symmetry usage will be decided dynamically.
 Closed shell SCF:
 Using DIIS extrapolation, IDIIS=  1040.
 NGot=  6710886400 LenX=  6709500316 LenY=  6708813904
 Requested convergence on RMS density matrix=1.00D-08 within 128 cycles.
 Requested convergence on MAX density matrix=1.00D-06.
 Requested convergence on             energy=1.00D-06.
 No special actions if energy rises.
 Fock matrices will be formed incrementally for  20 cycles.
 Integral accuracy reduced to 1.0D-05 until final iterations.

 Cycle   1  Pass 0  IDiag  1:
 FoFJK:  IHMeth= 1 ICntrl=       0 DoSepK=F KAlg= 0 I1Cent=           0 FoldK=F
 IRaf= 590000000 NMat=       1 IRICut=       1 DoRegI=T DoRafI=F ISym2E= 0 IDoP0=0 IntGTp=1.
 FoFCou: FMM=T IPFlag=           0 FMFlag=      100000 FMFlg1=        2001
         NFxFlg=           0 DoJE=F BraDBF=F KetDBF=F FulRan=T
         wScrn=  0.000000 ICntrl=         0 IOpCl=  0 I1Cent=           0 NGrid=           0
         NMat0=    1 NMatS0=      1 NMatT0=    0 NMatD0=    1 NMtDS0=    0 NMtDT0=    0
 Symmetry not used in FoFCou.
 FMM levels:  10  Number of levels for PrismC:   9
 E= -2256.27403085978    
 DIIS: error= 1.78D-02 at cycle   1 NSaved=   1.
 NSaved= 1 IEnMin= 1 EnMin= -2256.27403085978     IErMin= 1 ErrMin= 1.78D-02
 ErrMax= 1.78D-02  0.00D+00 EMaxC= 1.00D-01 BMatC= 9.80D-01 BMatP= 9.80D-01
 IDIUse=3 WtCom= 8.22D-01 WtEn= 1.78D-01
 Coeff-Com:  0.100D+01
 Coeff-En:   0.100D+01
 Coeff:      0.100D+01
 Gap=     0.067 Goal=   None    Shift=    0.000
 GapD=    0.067 DampG=0.500 DampE=0.500 DampFc=0.2500 IDamp=-1.
 Damping current iteration by 2.50D-01
 RMSDP=2.87D-03 MaxDP=1.77D-01              OVMax= 2.60D-01

 Cycle   2  Pass 0  IDiag  1:
 RMSU=  7.18D-04    CP:  9.98D-01
 E= -2256.58577582268     Delta-E=       -0.311744962893 Rises=F Damp=T
 DIIS: error= 8.98D-03 at cycle   2 NSaved=   2.
 NSaved= 2 IEnMin= 2 EnMin= -2256.58577582268     IErMin= 2 ErrMin= 8.98D-03
 ErrMax= 8.98D-03  0.00D+00 EMaxC= 1.00D-01 BMatC= 2.46D-01 BMatP= 9.80D-01
 IDIUse=3 WtCom= 9.10D-01 WtEn= 8.98D-02
 Coeff-Com: -0.787D+00 0.179D+01
 Coeff-En:   0.000D+00 0.100D+01
 Coeff:     -0.716D+00 0.172D+01
 Gap=     0.212 Goal=   None    Shift=    0.000
 RMSDP=6.36D-04 MaxDP=4.21D-02 DE=-3.12D-01 OVMax= 2.96D-01

 Cycle   3  Pass 0  IDiag  1:
 RMSU=  6.19D-04    CP:  9.97D-01  1.20D+00
 E= -2257.08600510964     Delta-E=       -0.500229286968 Rises=F Damp=F
 DIIS: error= 5.20D-03 at cycle   3 NSaved=   3.
 NSaved= 3 IEnMin= 3 EnMin= -2257.08600510964     IErMin= 3 ErrMin= 5.20D-03
 ErrMax= 5.20D-03  0.00D+00 EMaxC= 1.00D-01 BMatC= 4.13D-02 BMatP= 2.46D-01
 IDIUse=3 WtCom= 9.48D-01 WtEn= 5.20D-02
 Coeff-Com: -0.400D+00 0.797D+00 0.603D+00
 Coeff-En:   0.000D+00 0.000D+00 0.100D+01
 Coeff:     -0.379D+00 0.755D+00 0.624D+00
 Gap=     0.131 Goal=   None    Shift=    0.000
 RMSDP=3.88D-04 MaxDP=3.48D-02 DE=-5.00D-01 OVMax= 8.90D-02

 Cycle   4  Pass 0  IDiag  1:
 RMSU=  2.30D-04    CP:  9.97D-01  1.45D+00  5.80D-01
 E= -2257.11479808226     Delta-E=       -0.028792972614 Rises=F Damp=F
 DIIS: error= 3.03D-03 at cycle   4 NSaved=   4.
 NSaved= 4 IEnMin= 4 EnMin= -2257.11479808226     IErMin= 4 ErrMin= 3.03D-03
 ErrMax= 3.03D-03  0.00D+00 EMaxC= 1.00D-01 BMatC= 1.26D-02 BMatP= 4.13D-02
 IDIUse=3 WtCom= 9.70D-01 WtEn= 3.03D-02
 Coeff-Com: -0.131D+00 0.240D+00 0.376D+00 0.515D+00
 Coeff-En:   0.000D+00 0.000D+00 0.242D+00 0.758D+00
 Coeff:     -0.127D+00 0.232D+00 0.372D+00 0.522D+00
 Gap=     0.133 Goal=   None    Shift=    0.000
 RMSDP=1.34D-04 MaxDP=1.04D-02 DE=-2.88D-02 OVMax= 3.89D-02

 Cycle   5  Pass 0  IDiag  1:
 RMSU=  8.75D-05    CP:  9.96D-01  1.40D+00  6.72D-01  6.65D-01
 E= -2257.12607505273     Delta-E=       -0.011276970469 Rises=F Damp=F
 DIIS: error= 6.74D-04 at cycle   5 NSaved=   5.
 NSaved= 5 IEnMin= 5 EnMin= -2257.12607505273     IErMin= 5 ErrMin= 6.74D-04
 ErrMax= 6.74D-04  0.00D+00 EMaxC= 1.00D-01 BMatC= 7.59D-04 BMatP= 1.26D-02
 IDIUse=3 WtCom= 9.93D-01 WtEn= 6.74D-03
 Coeff-Com: -0.289D-01 0.499D-01 0.146D+00 0.275D+00 0.559D+00
 Coeff-En:   0.000D+00 0.000D+00 0.000D+00 0.000D+00 0.100D+01
 Coeff:     -0.287D-01 0.496D-01 0.145D+00 0.273D+00 0.562D+00
 Gap=     0.134 Goal=   None    Shift=    0.000
 RMSDP=4.60D-05 MaxDP=4.27D-03 DE=-1.13D-02 OVMax= 1.45D-02

 Cycle   6  Pass 0  IDiag  1:
 RMSU=  2.79D-05    CP:  9.96D-01  1.40D+00  6.87D-01  7.16D-01  6.18D-01
 E= -2257.12667021500     Delta-E=       -0.000595162275 Rises=F Damp=F
 DIIS: error= 3.21D-04 at cycle   6 NSaved=   6.
 NSaved= 6 IEnMin= 6 EnMin= -2257.12667021500     IErMin= 6 ErrMin= 3.21D-04
 ErrMax= 3.21D-04  0.00D+00 EMaxC= 1.00D-01 BMatC= 1.51D-04 BMatP= 7.59D-04
 IDIUse=3 WtCom= 9.97D-01 WtEn= 3.21D-03
 Coeff-Com: -0.206D-02 0.209D-02 0.486D-01 0.111D+00 0.353D+00 0.487D+00
 Coeff-En:   0.000D+00 0.000D+00 0.000D+00 0.000D+00 0.170D+00 0.830D+00
 Coeff:     -0.205D-02 0.208D-02 0.484D-01 0.111D+00 0.353D+00 0.488D+00
 Gap=     0.134 Goal=   None    Shift=    0.000
 RMSDP=1.96D-05 MaxDP=1.68D-03 DE=-5.95D-04 OVMax= 7.14D-03

 Cycle   7  Pass 0  IDiag  1:
 RMSU=  9.11D-06    CP:  9.96D-01  1.40D+00  6.91D-01  7.03D-01  6.85D-01
                    CP:  4.48D-01
 E= -2257.12680912192     Delta-E=       -0.000138906923 Rises=F Damp=F
 DIIS: error= 1.25D-04 at cycle   7 NSaved=   7.
 NSaved= 7 IEnMin= 7 EnMin= -2257.12680912192     IErMin= 7 ErrMin= 1.25D-04
 ErrMax= 1.25D-04  0.00D+00 EMaxC= 1.00D-01 BMatC= 1.79D-05 BMatP= 1.51D-04
 IDIUse=3 WtCom= 9.99D-01 WtEn= 1.25D-03
 Coeff-Com:  0.880D-03-0.230D-02 0.214D-01 0.516D-01 0.185D+00 0.318D+00
 Coeff-Com:  0.425D+00
 Coeff-En:   0.000D+00 0.000D+00 0.000D+00 0.000D+00 0.000D+00 0.698D-01
 Coeff-En:   0.930D+00
 Coeff:      0.879D-03-0.230D-02 0.214D-01 0.515D-01 0.185D+00 0.318D+00
 Coeff:      0.426D+00
 Gap=     0.134 Goal=   None    Shift=    0.000
 RMSDP=6.72D-06 MaxDP=5.29D-04 DE=-1.39D-04 OVMax= 2.33D-03

 Initial convergence to 1.0D-05 achieved.  Increase integral accuracy.
 Cycle   8  Pass 1  IDiag  1:
 E= -2257.12682389616     Delta-E=       -0.000014774239 Rises=F Damp=F
 DIIS: error= 1.08D-04 at cycle   1 NSaved=   1.
 NSaved= 1 IEnMin= 1 EnMin= -2257.12682389616     IErMin= 1 ErrMin= 1.08D-04
 ErrMax= 1.08D-04  0.00D+00 EMaxC= 1.00D-01 BMatC= 5.18D-06 BMatP= 5.18D-06
 IDIUse=3 WtCom= 9.99D-01 WtEn= 1.08D-03
 Coeff-Com:  0.100D+01
 Coeff-En:   0.100D+01
 Coeff:      0.100D+01
 Gap=     0.134 Goal=   None    Shift=    0.000
 RMSDP=6.72D-06 MaxDP=5.29D-04 DE=-1.48D-05 OVMax= 1.54D-03

 Cycle   9  Pass 1  IDiag  1:
 RMSU=  4.33D-05    CP:  1.00D+00
 E= -2257.12682147775     Delta-E=        0.000002418412 Rises=F Damp=F
 DIIS: error= 1.05D-04 at cycle   2 NSaved=   2.
 NSaved= 2 IEnMin= 1 EnMin= -2257.12682389616     IErMin= 2 ErrMin= 1.05D-04
 ErrMax= 1.05D-04  0.00D+00 EMaxC= 1.00D-01 BMatC= 7.68D-06 BMatP= 5.18D-06
 IDIUse=3 WtCom= 4.93D-01 WtEn= 5.07D-01
 Coeff-Com:  0.564D+00 0.436D+00
 Coeff-En:   0.606D+00 0.394D+00
 Coeff:      0.586D+00 0.414D+00
 Gap=     0.134 Goal=   None    Shift=    0.000
 RMSDP=5.15D-06 MaxDP=4.24D-04 DE= 2.42D-06 OVMax= 1.57D-03

 Cycle  10  Pass 1  IDiag  1:
 RMSU=  5.11D-06    CP:  1.00D+00  9.87D-01
 E= -2257.12682793766     Delta-E=       -0.000006459906 Rises=F Damp=F
 DIIS: error= 5.30D-05 at cycle   3 NSaved=   3.
 NSaved= 3 IEnMin= 3 EnMin= -2257.12682793766     IErMin= 3 ErrMin= 5.30D-05
 ErrMax= 5.30D-05  0.00D+00 EMaxC= 1.00D-01 BMatC= 1.42D-06 BMatP= 5.18D-06
 IDIUse=1 WtCom= 1.00D+00 WtEn= 0.00D+00
 Coeff-Com:  0.450D-01 0.295D+00 0.660D+00
 Coeff:      0.450D-01 0.295D+00 0.660D+00
 Gap=     0.134 Goal=   None    Shift=    0.000
 RMSDP=1.93D-06 MaxDP=1.43D-04 DE=-6.46D-06 OVMax= 5.95D-04

 Cycle  11  Pass 1  IDiag  1:
 RMSU=  8.37D-07    CP:  1.00D+00  1.00D+00  6.79D-01
 E= -2257.12682926887     Delta-E=       -0.000001331215 Rises=F Damp=F
 DIIS: error= 1.36D-05 at cycle   4 NSaved=   4.
 NSaved= 4 IEnMin= 4 EnMin= -2257.12682926887     IErMin= 4 ErrMin= 1.36D-05
 ErrMax= 1.36D-05  0.00D+00 EMaxC= 1.00D-01 BMatC= 2.25D-07 BMatP= 1.42D-06
 IDIUse=1 WtCom= 1.00D+00 WtEn= 0.00D+00
 Coeff-Com: -0.239D-02 0.171D+00 0.440D+00 0.391D+00
 Coeff:     -0.239D-02 0.171D+00 0.440D+00 0.391D+00
 Gap=     0.134 Goal=   None    Shift=    0.000
 RMSDP=5.57D-07 MaxDP=4.55D-05 DE=-1.33D-06 OVMax= 1.39D-04

 Cycle  12  Pass 1  IDiag  1:
 RMSU=  1.78D-07    CP:  1.00D+00  1.00D+00  7.08D-01  3.94D-01
 E= -2257.12682948418     Delta-E=       -0.000000215306 Rises=F Damp=F
 DIIS: error= 1.16D-06 at cycle   5 NSaved=   5.
 NSaved= 5 IEnMin= 5 EnMin= -2257.12682948418     IErMin= 5 ErrMin= 1.16D-06
 ErrMax= 1.16D-06  0.00D+00 EMaxC= 1.00D-01 BMatC= 3.01D-09 BMatP= 2.25D-07
 IDIUse=1 WtCom= 1.00D+00 WtEn= 0.00D+00
 Coeff-Com: -0.244D-02 0.890D-01 0.232D+00 0.218D+00 0.463D+00
 Coeff:     -0.244D-02 0.890D-01 0.232D+00 0.218D+00 0.463D+00
 Gap=     0.134 Goal=   None    Shift=    0.000
 RMSDP=9.38D-08 MaxDP=5.08D-06 DE=-2.15D-07 OVMax= 2.91D-05

 Cycle  13  Pass 1  IDiag  1:
 RMSU=  6.73D-08    CP:  1.00D+00  1.00D+00  7.08D-01  4.23D-01  6.61D-01
 E= -2257.12682948676     Delta-E=       -0.000000002585 Rises=F Damp=F
 DIIS: error= 4.42D-07 at cycle   6 NSaved=   6.
 NSaved= 6 IEnMin= 6 EnMin= -2257.12682948676     IErMin= 6 ErrMin= 4.42D-07
 ErrMax= 4.42D-07  0.00D+00 EMaxC= 1.00D-01 BMatC= 3.25D-10 BMatP= 3.01D-09
 IDIUse=1 WtCom= 1.00D+00 WtEn= 0.00D+00
 Coeff-Com: -0.127D-02 0.398D-01 0.105D+00 0.990D-01 0.286D+00 0.472D+00
 Coeff:     -0.127D-02 0.398D-01 0.105D+00 0.990D-01 0.286D+00 0.472D+00
 Gap=     0.134 Goal=   None    Shift=    0.000
 RMSDP=3.70D-08 MaxDP=3.29D-06 DE=-2.58D-09 OVMax= 1.18D-05

 Cycle  14  Pass 1  IDiag  1:
 RMSU=  2.52D-08    CP:  1.00D+00  1.00D+00  7.08D-01  4.20D-01  6.94D-01
                    CP:  6.09D-01
 E= -2257.12682948709     Delta-E=       -0.000000000324 Rises=F Damp=F
 DIIS: error= 1.54D-07 at cycle   7 NSaved=   7.
 NSaved= 7 IEnMin= 7 EnMin= -2257.12682948709     IErMin= 7 ErrMin= 1.54D-07
 ErrMax= 1.54D-07  0.00D+00 EMaxC= 1.00D-01 BMatC= 3.75D-11 BMatP= 3.25D-10
 IDIUse=1 WtCom= 1.00D+00 WtEn= 0.00D+00
 Coeff-Com: -0.385D-03 0.103D-01 0.276D-01 0.253D-01 0.999D-01 0.287D+00
 Coeff-Com:  0.550D+00
 Coeff:     -0.385D-03 0.103D-01 0.276D-01 0.253D-01 0.999D-01 0.287D+00
 Coeff:      0.550D+00
 Gap=     0.134 Goal=   None    Shift=    0.000
 RMSDP=1.12D-08 MaxDP=7.39D-07 DE=-3.24D-10 OVMax= 3.78D-06

 Cycle  15  Pass 1  IDiag  1:
 RMSU=  7.54D-09    CP:  1.00D+00  1.00D+00  7.08D-01  4.21D-01  6.96D-01
                    CP:  7.00D-01  7.94D-01
 E= -2257.12682948715     Delta-E=       -0.000000000063 Rises=F Damp=F
 DIIS: error= 7.19D-08 at cycle   8 NSaved=   8.
 NSaved= 8 IEnMin= 8 EnMin= -2257.12682948715     IErMin= 8 ErrMin= 7.19D-08
 ErrMax= 7.19D-08  0.00D+00 EMaxC= 1.00D-01 BMatC= 5.37D-12 BMatP= 3.75D-11
 IDIUse=1 WtCom= 1.00D+00 WtEn= 0.00D+00
 Coeff-Com:  0.613D-04-0.318D-02-0.796D-02-0.857D-02-0.647D-02 0.717D-01
 Coeff-Com:  0.320D+00 0.634D+00
 Coeff:      0.613D-04-0.318D-02-0.796D-02-0.857D-02-0.647D-02 0.717D-01
 Coeff:      0.320D+00 0.634D+00
 Gap=     0.134 Goal=   None    Shift=    0.000
 RMSDP=4.88D-09 MaxDP=3.85D-07 DE=-6.28D-11 OVMax= 1.18D-06

 SCF Done:  E(RB3LYP) =  -2257.12682949     A.U. after   15 cycles
            NFock= 15  Conv=0.49D-08     -V/T= 2.0024
 KE= 2.251819261116D+03 PE=-1.239952501942D+04 EE= 4.345459417722D+03
 Leave Link  502 at Fri Mar 13 12:47:40 2020, MaxMem=  6710886400 cpu:            2025.5 elap:             253.6
 (Enter /apps/gaussian/g16-a03/l601.exe)
 Copying SCF densities to generalized density rwf, IOpCl= 0 IROHF=0.

 **********************************************************************

            Population analysis using the SCF density.

 **********************************************************************

 Orbital symmetries:
       Occupied  (A) (A) (A) (A) (A) (A) (A) (A) (A) (A) (A) (A)
                 (A) (A) (A) (A) (A) (A) (A) (A) (A) (A) (A) (A)
                 (A) (A) (A) (A) (A) (A) (A) (A) (A) (A) (A) (A)
                 (A) (A) (A) (A) (A) (A) (A) (A) (A) (A) (A) (A)
                 (A) (A) (A) (A) (A) (A) (A) (A) (A) (A) (A) (A)
                 (A) (A) (A) (A) (A) (A) (A) (A) (A) (A) (A) (A)
                 (A) (A) (A) (A) (A) (A) (A) (A) (A) (A) (A) (A)
                 (A) (A) (A) (A) (A) (A) (A) (A) (A) (A) (A) (A)
                 (A) (A) (A) (A) (A) (A) (A) (A) (A) (A) (A) (A)
                 (A) (A) (A) (A) (A) (A) (A) (A) (A) (A) (A) (A)
                 (A) (A) (A) (A) (A) (A) (A) (A) (A) (A) (A)
       Virtual   (A) (A) (A) (A) (A) (A) (A) (A) (A) (A) (A) (A)
                 (A) (A) (A) (A) (A) (A) (A) (A) (A) (A) (A) (A)
                 (A) (A) (A) (A) (A) (A) (A) (A) (A) (A) (A) (A)
                 (A) (A) (A) (A) (A) (A) (A) (A) (A) (A) (A) (A)
                 (A) (A) (A) (A) (A) (A) (A) (A) (A) (A) (A) (A)
                 (A) (A) (A) (A) (A) (A) (A) (A) (A) (A) (A) (A)
                 (A) (A) (A) (A) (A) (A) (A) (A) (A) (A) (A) (A)
                 (A) (A) (A) (A) (A) (A) (A) (A) (A) (A) (A) (A)
                 (A) (A) (A) (A) (A) (A) (A) (A) (A) (A) (A) (A)
                 (A) (A) (A) (A) (A) (A) (A) (A) (A) (A) (A) (A)
                 (A) (A) (A) (A) (A) (A) (A) (A) (A) (A) (A) (A)
                 (A) (A) (A) (A) (A) (A) (A) (A) (A) (A) (A) (A)
                 (A) (A) (A) (A) (A) (A) (A) (A) (A) (A) (A) (A)
                 (A) (A) (A) (A) (A) (A) (A) (A) (A) (A) (A) (A)
                 (A) (A) (A) (A) (A) (A) (A) (A) (A) (A) (A) (A)
                 (A) (A) (A) (A) (A) (A) (A) (A) (A) (A) (A) (A)
                 (A) (A) (A) (A) (A) (A) (A) (A) (A) (A) (A) (A)
                 (A) (A) (A) (A) (A) (A) (A) (A) (A) (A) (A) (A)
                 (A) (A) (A) (A) (A) (A) (A) (A) (A) (A) (A) (A)
                 (A) (A) (A) (A) (A) (A) (A) (A) (A) (A) (A) (A)
                 (A) (A) (A) (A) (A) (A) (A) (A) (A) (A) (A) (A)
                 (A) (A) (A) (A) (A) (A) (A) (A) (A) (A) (A) (A)
                 (A) (A) (A) (A) (A) (A) (A) (A) (A) (A) (A) (A)
                 (A) (A) (A) (A) (A) (A) (A) (A) (A) (A) (A) (A)
                 (A) (A) (A) (A) (A) (A) (A) (A) (A) (A) (A) (A)
                 (A) (A) (A) (A) (A) (A) (A) (A) (A) (A) (A) (A)
                 (A) (A) (A) (A) (A) (A) (A) (A) (A) (A) (A) (A)
                 (A) (A) (A) (A) (A) (A) (A) (A) (A) (A) (A) (A)
                 (A) (A) (A) (A) (A) (A) (A) (A) (A) (A) (A) (A)
                 (A) (A) (A) (A) (A) (A) (A) (A) (A) (A) (A) (A)
                 (A) (A) (A) (A) (A) (A) (A) (A) (A) (A) (A) (A)
                 (A) (A) (A) (A) (A) (A) (A) (A) (A) (A) (A) (A)
                 (A) (A) (A) (A) (A) (A) (A) (A) (A) (A) (A) (A)
                 (A) (A) (A) (A) (A) (A) (A) (A) (A) (A) (A) (A)
                 (A) (A) (A) (A) (A) (A) (A) (A) (A) (A) (A) (A)
                 (A) (A) (A) (A) (A) (A) (A) (A) (A) (A) (A) (A)
                 (A) (A) (A) (A) (A) (A) (A) (A) (A) (A) (A) (A)
                 (A) (A) (A) (A) (A) (A) (A) (A) (A) (A) (A) (A)
                 (A) (A) (A) (A) (A) (A) (A) (A) (A) (A) (A) (A)
                 (A) (A) (A) (A) (A) (A) (A) (A) (A) (A) (A) (A)
                 (A) (A) (A) (A) (A) (A) (A) (A) (A) (A) (A) (A)
                 (A) (A) (A) (A) (A) (A) (A) (A) (A) (A) (A) (A)
                 (A) (A) (A) (A) (A) (A) (A) (A) (A) (A) (A) (A)
                 (A) (A) (A) (A) (A) (A) (A) (A) (A) (A) (A) (A)
                 (A) (A) (A) (A) (A) (A) (A) (A) (A) (A) (A) (A)
                 (A) (A) (A) (A) (A) (A) (A) (A) (A) (A) (A) (A)
                 (A) (A) (A) (A) (A) (A) (A) (A) (A) (A) (A) (A)
                 (A) (A) (A) (A) (A) (A) (A) (A) (A) (A) (A) (A)
                 (A) (A) (A) (A) (A) (A) (A) (A) (A) (A) (A) (A)
                 (A) (A) (A) (A) (A) (A) (A) (A) (A) (A) (A) (A)
                 (A) (A) (A) (A) (A) (A) (A) (A) (A) (A) (A) (A)
                 (A) (A) (A) (A) (A) (A) (A) (A) (A) (A) (A) (A)
                 (A) (A) (A) (A) (A) (A) (A) (A) (A) (A) (A) (A)
                 (A) (A) (A) (A) (A) (A) (A) (A) (A) (A) (A) (A)
                 (A) (A) (A) (A) (A) (A) (A) (A) (A) (A) (A) (A)
                 (A) (A) (A) (A) (A)
 The electronic state is 1-A.
 Alpha  occ. eigenvalues --  -88.88188 -88.87472 -19.15239 -19.15080 -19.12750
 Alpha  occ. eigenvalues --  -19.12156 -19.12111 -19.12104 -19.11338 -19.11271
 Alpha  occ. eigenvalues --  -10.23933 -10.23139 -10.22999 -10.22729 -10.22189
 Alpha  occ. eigenvalues --  -10.22160 -10.21871 -10.21473 -10.21444 -10.21336
 Alpha  occ. eigenvalues --  -10.21266 -10.21243 -10.21055 -10.20906 -10.20889
 Alpha  occ. eigenvalues --  -10.20848 -10.20809 -10.20665 -10.20420 -10.20404
 Alpha  occ. eigenvalues --  -10.18887 -10.18200  -7.96803  -7.96024  -5.93076
 Alpha  occ. eigenvalues --   -5.92723  -5.92416  -5.92318  -5.91950  -5.91614
 Alpha  occ. eigenvalues --   -1.09480  -1.08362  -1.05502  -1.05076  -1.03407
 Alpha  occ. eigenvalues --   -1.03130  -1.02762  -1.02139  -0.89334  -0.87107
 Alpha  occ. eigenvalues --   -0.79958  -0.79879  -0.77796  -0.77510  -0.77228
 Alpha  occ. eigenvalues --   -0.74340  -0.73848  -0.73082  -0.71979  -0.69826
 Alpha  occ. eigenvalues --   -0.69272  -0.67476  -0.64670  -0.64276  -0.62249
 Alpha  occ. eigenvalues --   -0.61754  -0.60622  -0.60172  -0.60098  -0.59720
 Alpha  occ. eigenvalues --   -0.56440  -0.55503  -0.54166  -0.52449  -0.52176
 Alpha  occ. eigenvalues --   -0.51863  -0.51170  -0.50313  -0.49977  -0.49333
 Alpha  occ. eigenvalues --   -0.49126  -0.48706  -0.48386  -0.47836  -0.47067
 Alpha  occ. eigenvalues --   -0.47027  -0.46680  -0.46330  -0.46130  -0.45336
 Alpha  occ. eigenvalues --   -0.45014  -0.44705  -0.44278  -0.43986  -0.43461
 Alpha  occ. eigenvalues --   -0.43144  -0.42453  -0.41889  -0.41245  -0.40934
 Alpha  occ. eigenvalues --   -0.39538  -0.39311  -0.38982  -0.38362  -0.38192
 Alpha  occ. eigenvalues --   -0.36992  -0.36843  -0.36164  -0.35794  -0.35778
 Alpha  occ. eigenvalues --   -0.35398  -0.34948  -0.33697  -0.33258  -0.32853
 Alpha  occ. eigenvalues --   -0.32370  -0.31823  -0.31585  -0.30873  -0.29862
 Alpha  occ. eigenvalues --   -0.29314  -0.28271  -0.27856  -0.26657  -0.26268
 Alpha  occ. eigenvalues --   -0.26166  -0.25606  -0.25317  -0.24672  -0.23838
 Alpha  occ. eigenvalues --   -0.19567
 Alpha virt. eigenvalues --   -0.06144  -0.00685   0.01495   0.01713   0.03321
 Alpha virt. eigenvalues --    0.03915   0.04112   0.04290   0.04778   0.04981
 Alpha virt. eigenvalues --    0.05073   0.05674   0.05976   0.06171   0.06569
 Alpha virt. eigenvalues --    0.06732   0.07209   0.07598   0.07861   0.08084
 Alpha virt. eigenvalues --    0.08286   0.08796   0.09024   0.09361   0.09844
 Alpha virt. eigenvalues --    0.10098   0.10427   0.10545   0.10734   0.10849
 Alpha virt. eigenvalues --    0.11101   0.11240   0.11425   0.12032   0.12499
 Alpha virt. eigenvalues --    0.13000   0.13313   0.13832   0.14441   0.14564
 Alpha virt. eigenvalues --    0.14990   0.15484   0.16016   0.16324   0.16593
 Alpha virt. eigenvalues --    0.16807   0.17455   0.18008   0.18691   0.19161
 Alpha virt. eigenvalues --    0.19461   0.19797   0.20548   0.21158   0.21504
 Alpha virt. eigenvalues --    0.21994   0.22279   0.23092   0.23286   0.23532
 Alpha virt. eigenvalues --    0.24093   0.24518   0.24751   0.25084   0.26458
 Alpha virt. eigenvalues --    0.26761   0.26996   0.27289   0.27984   0.28657
 Alpha virt. eigenvalues --    0.29154   0.29735   0.29855   0.31009   0.31397
 Alpha virt. eigenvalues --    0.31766   0.31915   0.32927   0.33444   0.33906
 Alpha virt. eigenvalues --    0.34771   0.34946   0.35142   0.36191   0.36728
 Alpha virt. eigenvalues --    0.37669   0.37972   0.38336   0.38677   0.38796
 Alpha virt. eigenvalues --    0.39640   0.40539   0.40642   0.41007   0.41279
 Alpha virt. eigenvalues --    0.41855   0.42140   0.42748   0.43050   0.43706
 Alpha virt. eigenvalues --    0.43802   0.44190   0.44945   0.45257   0.45680
 Alpha virt. eigenvalues --    0.45765   0.46456   0.47077   0.47274   0.47876
 Alpha virt. eigenvalues --    0.48435   0.48931   0.49168   0.49253   0.50307
 Alpha virt. eigenvalues --    0.50486   0.50872   0.51157   0.51369   0.51496
 Alpha virt. eigenvalues --    0.52368   0.52899   0.52970   0.53105   0.53286
 Alpha virt. eigenvalues --    0.53589   0.53825   0.54357   0.54648   0.54826
 Alpha virt. eigenvalues --    0.55119   0.55610   0.55819   0.56064   0.56340
 Alpha virt. eigenvalues --    0.56435   0.57113   0.57263   0.57506   0.57810
 Alpha virt. eigenvalues --    0.58281   0.58595   0.58735   0.59115   0.59433
 Alpha virt. eigenvalues --    0.59583   0.59793   0.60010   0.60507   0.60688
 Alpha virt. eigenvalues --    0.61055   0.61523   0.61685   0.61767   0.62015
 Alpha virt. eigenvalues --    0.62382   0.62490   0.62757   0.63504   0.64112
 Alpha virt. eigenvalues --    0.64262   0.64799   0.65543   0.65799   0.66321
 Alpha virt. eigenvalues --    0.66539   0.67013   0.67081   0.67959   0.68338
 Alpha virt. eigenvalues --    0.69082   0.69845   0.70522   0.70820   0.71600
 Alpha virt. eigenvalues --    0.72417   0.72706   0.73414   0.73719   0.74786
 Alpha virt. eigenvalues --    0.75173   0.75963   0.76834   0.77540   0.78733
 Alpha virt. eigenvalues --    0.79630   0.80005   0.80716   0.81301   0.82153
 Alpha virt. eigenvalues --    0.82759   0.84089   0.84302   0.84420   0.85329
 Alpha virt. eigenvalues --    0.85614   0.86027   0.86860   0.87582   0.88517
 Alpha virt. eigenvalues --    0.89341   0.90005   0.90382   0.91083   0.91316
 Alpha virt. eigenvalues --    0.93113   0.93312   0.93813   0.95185   0.95301
 Alpha virt. eigenvalues --    0.95521   0.96190   0.97093   0.97866   0.99198
 Alpha virt. eigenvalues --    0.99769   1.00396   1.01291   1.02039   1.02925
 Alpha virt. eigenvalues --    1.03315   1.04431   1.05116   1.05406   1.06385
 Alpha virt. eigenvalues --    1.07022   1.07516   1.08047   1.08476   1.09381
 Alpha virt. eigenvalues --    1.09890   1.10688   1.12060   1.12493   1.13304
 Alpha virt. eigenvalues --    1.13523   1.14075   1.14434   1.15628   1.16249
 Alpha virt. eigenvalues --    1.17046   1.18081   1.20225   1.21485   1.21857
 Alpha virt. eigenvalues --    1.23190   1.23688   1.24473   1.25168   1.26214
 Alpha virt. eigenvalues --    1.26616   1.27237   1.28423   1.29081   1.29941
 Alpha virt. eigenvalues --    1.31596   1.31732   1.32683   1.34407   1.34802
 Alpha virt. eigenvalues --    1.35740   1.35886   1.37508   1.38253   1.38854
 Alpha virt. eigenvalues --    1.39903   1.40389   1.41639   1.42573   1.42607
 Alpha virt. eigenvalues --    1.43212   1.43539   1.44391   1.44607   1.45227
 Alpha virt. eigenvalues --    1.45266   1.46112   1.46952   1.47153   1.47428
 Alpha virt. eigenvalues --    1.47858   1.48245   1.48412   1.49310   1.49703
 Alpha virt. eigenvalues --    1.49814   1.50212   1.50696   1.51158   1.51327
 Alpha virt. eigenvalues --    1.51646   1.52055   1.52605   1.53157   1.53611
 Alpha virt. eigenvalues --    1.54021   1.54492   1.54566   1.54756   1.55432
 Alpha virt. eigenvalues --    1.55542   1.56087   1.56897   1.57173   1.57560
 Alpha virt. eigenvalues --    1.57939   1.58170   1.58568   1.58921   1.59116
 Alpha virt. eigenvalues --    1.59738   1.60104   1.60701   1.60999   1.61053
 Alpha virt. eigenvalues --    1.61866   1.62688   1.63263   1.63632   1.64612
 Alpha virt. eigenvalues --    1.64786   1.65308   1.65569   1.65771   1.66323
 Alpha virt. eigenvalues --    1.66579   1.67254   1.67769   1.68002   1.68433
 Alpha virt. eigenvalues --    1.68777   1.69404   1.69907   1.70338   1.70826
 Alpha virt. eigenvalues --    1.71091   1.71824   1.72038   1.72733   1.72996
 Alpha virt. eigenvalues --    1.73458   1.74128   1.74437   1.75356   1.76011
 Alpha virt. eigenvalues --    1.76622   1.77958   1.78537   1.79319   1.79447
 Alpha virt. eigenvalues --    1.80074   1.80638   1.81771   1.82429   1.82963
 Alpha virt. eigenvalues --    1.83435   1.84024   1.84574   1.85481   1.85927
 Alpha virt. eigenvalues --    1.86298   1.87215   1.88151   1.89530   1.90145
 Alpha virt. eigenvalues --    1.90802   1.92495   1.92871   1.93162   1.94586
 Alpha virt. eigenvalues --    1.94805   1.94996   1.96149   1.97374   1.98045
 Alpha virt. eigenvalues --    1.98758   1.98784   1.99330   1.99783   2.00877
 Alpha virt. eigenvalues --    2.01351   2.02295   2.03285   2.03451   2.03890
 Alpha virt. eigenvalues --    2.04360   2.05727   2.06218   2.06576   2.07503
 Alpha virt. eigenvalues --    2.08208   2.09061   2.10516   2.10815   2.10850
 Alpha virt. eigenvalues --    2.11154   2.11321   2.11679   2.12670   2.13138
 Alpha virt. eigenvalues --    2.13342   2.14458   2.15615   2.15830   2.16223
 Alpha virt. eigenvalues --    2.17191   2.17622   2.19530   2.20062   2.21812
 Alpha virt. eigenvalues --    2.22391   2.22933   2.23677   2.25117   2.25657
 Alpha virt. eigenvalues --    2.26179   2.27260   2.27537   2.28838   2.29393
 Alpha virt. eigenvalues --    2.29879   2.30311   2.30617   2.31338   2.32514
 Alpha virt. eigenvalues --    2.33520   2.34668   2.35271   2.35332   2.36292
 Alpha virt. eigenvalues --    2.36762   2.37009   2.37875   2.38480   2.39134
 Alpha virt. eigenvalues --    2.40706   2.40823   2.41633   2.42543   2.43216
 Alpha virt. eigenvalues --    2.43705   2.43931   2.45420   2.46046   2.46521
 Alpha virt. eigenvalues --    2.47827   2.48374   2.48542   2.49087   2.50085
 Alpha virt. eigenvalues --    2.50387   2.51336   2.52069   2.52409   2.52924
 Alpha virt. eigenvalues --    2.54067   2.54804   2.55677   2.56294   2.56467
 Alpha virt. eigenvalues --    2.57528   2.57808   2.58076   2.58738   2.59332
 Alpha virt. eigenvalues --    2.60264   2.60642   2.61380   2.61642   2.62333
 Alpha virt. eigenvalues --    2.63284   2.63446   2.64015   2.64670   2.65240
 Alpha virt. eigenvalues --    2.66217   2.67139   2.67829   2.68124   2.69097
 Alpha virt. eigenvalues --    2.71822   2.72280   2.72694   2.73269   2.73751
 Alpha virt. eigenvalues --    2.75223   2.75613   2.76052   2.76672   2.77766
 Alpha virt. eigenvalues --    2.78313   2.78742   2.80475   2.81835   2.82896
 Alpha virt. eigenvalues --    2.83621   2.84924   2.85686   2.86588   2.87117
 Alpha virt. eigenvalues --    2.87979   2.89889   2.91000   2.92401   2.92994
 Alpha virt. eigenvalues --    2.94092   2.94491   2.95950   2.96497   2.97496
 Alpha virt. eigenvalues --    2.97776   2.99320   2.99664   3.01021   3.01527
 Alpha virt. eigenvalues --    3.01799   3.03576   3.04113   3.05209   3.07895
 Alpha virt. eigenvalues --    3.08380   3.08845   3.09438   3.10723   3.12368
 Alpha virt. eigenvalues --    3.12438   3.14983   3.15654   3.16183   3.18113
 Alpha virt. eigenvalues --    3.18614   3.19253   3.20014   3.20818   3.21246
 Alpha virt. eigenvalues --    3.22579   3.23063   3.23466   3.25578   3.27010
 Alpha virt. eigenvalues --    3.27392   3.28660   3.30250   3.30524   3.30704
 Alpha virt. eigenvalues --    3.32274   3.33276   3.34490   3.35051   3.36743
 Alpha virt. eigenvalues --    3.37254   3.39877   3.40299   3.41173   3.42014
 Alpha virt. eigenvalues --    3.45266   3.48813   3.55062   3.65260   3.67509
 Alpha virt. eigenvalues --    3.67903   3.70695   3.70900   3.71342   3.76839
 Alpha virt. eigenvalues --    3.78060   3.80515   3.81260   3.82771   3.83756
 Alpha virt. eigenvalues --    3.85176   3.86340   3.86365   3.88014   3.91822
 Alpha virt. eigenvalues --    3.94569   3.95189   3.95287   3.96643   3.97690
 Alpha virt. eigenvalues --    3.98618   3.99121   4.01596   4.02565   4.03683
 Alpha virt. eigenvalues --    4.04539   4.04816   4.06803   4.07969   4.09448
 Alpha virt. eigenvalues --    4.10701   4.13162   4.15895   4.21901   4.23316
 Alpha virt. eigenvalues --    4.24223   4.28510   4.29406   4.29715   4.30768
 Alpha virt. eigenvalues --    4.53535   4.93965   4.96473   4.96977   4.97563
 Alpha virt. eigenvalues --    5.01730   5.08479   5.09835   5.13816   5.22217
 Alpha virt. eigenvalues --    5.23190   5.24586   5.26811   5.28596   5.29488
 Alpha virt. eigenvalues --    5.30398   5.32213   5.64502   5.66247   5.68886
 Alpha virt. eigenvalues --    5.69112   5.71290   5.81534   5.84230   5.86981
 Alpha virt. eigenvalues --    7.80106   7.81331  17.19736  17.22605  17.40781
 Alpha virt. eigenvalues --   17.43798  17.48368  17.51841  23.43420  23.67226
 Alpha virt. eigenvalues --   23.79342  23.79691  23.80232  23.81143  23.82353
 Alpha virt. eigenvalues --   23.82518  23.84377  23.85022  23.85633  23.86531
 Alpha virt. eigenvalues --   23.89494  23.90199  23.90490  23.90556  23.92674
 Alpha virt. eigenvalues --   23.94574  23.95020  24.02143  24.12321  24.12512
 Alpha virt. eigenvalues --   49.88115  49.88841  49.91019  49.91208  49.93558
[...]
 Alpha  occ. eigenvalues --  -10.21253 -10.20163 -10.20093 -10.19000 -10.18974
 Alpha  occ. eigenvalues --  -10.16502 -10.16470  -7.95230  -7.95225  -5.91539
 Alpha  occ. eigenvalues --   -5.91533  -5.91158  -5.91152  -5.90803  -5.90798
 Alpha  occ. eigenvalues --   -1.05865  -1.05692  -1.04822  -1.04737  -1.03857
 Alpha  occ. eigenvalues --   -1.03658  -1.03057  -1.02628  -0.88253  -0.86446
 Alpha  occ. eigenvalues --   -0.78921  -0.78535  -0.76785  -0.76531  -0.75753
 Alpha  occ. eigenvalues --   -0.74095  -0.73670  -0.71509  -0.70797  -0.69381
 Alpha  occ. eigenvalues --   -0.68646  -0.67689  -0.64388  -0.63670  -0.61825
 Alpha  occ. eigenvalues --   -0.61414  -0.59562  -0.59046  -0.58751  -0.57765
 Alpha  occ. eigenvalues --   -0.54894  -0.54403  -0.52718  -0.51956  -0.51911
 Alpha  occ. eigenvalues --   -0.51047  -0.50884  -0.49766  -0.49262  -0.49098
 Alpha  occ. eigenvalues --   -0.48678  -0.47822  -0.47739  -0.47182  -0.46640
 Alpha  occ. eigenvalues --   -0.46324  -0.46078  -0.45955  -0.45434  -0.44759
 Alpha  occ. eigenvalues --   -0.44544  -0.44299  -0.43940  -0.43660  -0.43239
 Alpha  occ. eigenvalues --   -0.42906  -0.41659  -0.41292  -0.40665  -0.40276
 Alpha  occ. eigenvalues --   -0.39649  -0.39331  -0.38655  -0.37782  -0.37578
 Alpha  occ. eigenvalues --   -0.36850  -0.36809  -0.36429  -0.36146  -0.35224
 Alpha  occ. eigenvalues --   -0.34743  -0.34222  -0.33507  -0.33438  -0.32870
 Alpha  occ. eigenvalues --   -0.32527  -0.32404  -0.31693  -0.31462  -0.29617
 Alpha  occ. eigenvalues --   -0.29433  -0.27713  -0.27206  -0.26568  -0.26293
 Alpha  occ. eigenvalues --   -0.26162  -0.25926  -0.25012  -0.23750  -0.23431
 Alpha  occ. eigenvalues --   -0.19047
 Alpha virt. eigenvalues --   -0.03725   0.01411   0.02753   0.03001   0.03359
 Alpha virt. eigenvalues --    0.03782   0.04749   0.04993   0.05206   0.05245
 Alpha virt. eigenvalues --    0.05899   0.06232   0.06400   0.06995   0.07299
 Alpha virt. eigenvalues --    0.07512   0.07760   0.08138   0.08591   0.08867
 Alpha virt. eigenvalues --    0.09023   0.09397   0.09570   0.09700   0.09728
 Alpha virt. eigenvalues --    0.10334   0.10553   0.10899   0.10989   0.11157
 Alpha virt. eigenvalues --    0.11379   0.11634   0.11836   0.12177   0.12347
 Alpha virt. eigenvalues --    0.12811   0.12987   0.13316   0.13657   0.14024
 Alpha virt. eigenvalues --    0.14368   0.14585   0.15143   0.15687   0.16073
 Alpha virt. eigenvalues --    0.16509   0.16638   0.17373   0.17882   0.18593
 Alpha virt. eigenvalues --    0.18813   0.20070   0.20421   0.20623   0.21234
 Alpha virt. eigenvalues --    0.21462   0.21557   0.22250   0.22625   0.23140
 Alpha virt. eigenvalues --    0.23193   0.23502   0.24304   0.24571   0.24750
 Alpha virt. eigenvalues --    0.25227   0.26034   0.26198   0.27111   0.27830
 Alpha virt. eigenvalues --    0.28499   0.29458   0.30858   0.30922   0.31014
 Alpha virt. eigenvalues --    0.31466   0.32562   0.33150   0.33540   0.33908
 Alpha virt. eigenvalues --    0.34526   0.35411   0.36012   0.36495   0.36826
 Alpha virt. eigenvalues --    0.37796   0.38137   0.38391   0.38792   0.39294
 Alpha virt. eigenvalues --    0.39816   0.40188   0.40654   0.40891   0.41192
 Alpha virt. eigenvalues --    0.41670   0.42217   0.42938   0.43096   0.43361
 Alpha virt. eigenvalues --    0.43673   0.43812   0.44008   0.44375   0.44685
 Alpha virt. eigenvalues --    0.44890   0.45053   0.45344   0.45619   0.46359
 Alpha virt. eigenvalues --    0.46662   0.46978   0.47479   0.48491   0.48921
 Alpha virt. eigenvalues --    0.49223   0.49630   0.49911   0.50096   0.50596
 Alpha virt. eigenvalues --    0.50850   0.51036   0.52026   0.52201   0.52655
 Alpha virt. eigenvalues --    0.52824   0.53262   0.53612   0.53971   0.54195
 Alpha virt. eigenvalues --    0.54477   0.54896   0.55378   0.55750   0.55887
 Alpha virt. eigenvalues --    0.56186   0.56522   0.56799   0.57113   0.57167
 Alpha virt. eigenvalues --    0.57578   0.57930   0.58012   0.58318   0.58430
 Alpha virt. eigenvalues --    0.59275   0.59488   0.59631   0.59896   0.60045
 Alpha virt. eigenvalues --    0.60310   0.60592   0.60825   0.61169   0.61570
 Alpha virt. eigenvalues --    0.61764   0.62227   0.62306   0.62925   0.63548
 Alpha virt. eigenvalues --    0.63921   0.64123   0.65091   0.65844   0.66152
 Alpha virt. eigenvalues --    0.66238   0.66750   0.66968   0.67606   0.68059
 Alpha virt. eigenvalues --    0.69452   0.69889   0.70410   0.70858   0.71270
 Alpha virt. eigenvalues --    0.72087   0.73285   0.73696   0.74733   0.75376
 Alpha virt. eigenvalues --    0.75724   0.76265   0.77202   0.77923   0.78233
 Alpha virt. eigenvalues --    0.78596   0.78960   0.80260   0.80679   0.81837
 Alpha virt. eigenvalues --    0.82442   0.82775   0.84139   0.84407   0.85300
 Alpha virt. eigenvalues --    0.85769   0.86826   0.87762   0.87835   0.88827
 Alpha virt. eigenvalues --    0.89692   0.90021   0.90461   0.91100   0.91905
 Alpha virt. eigenvalues --    0.92234   0.93115   0.93885   0.95028   0.95675
 Alpha virt. eigenvalues --    0.96948   0.97740   0.98875   0.99301   0.99467
 Alpha virt. eigenvalues --    1.00046   1.00735   1.01271   1.01903   1.03016
 Alpha virt. eigenvalues --    1.03969   1.04499   1.04608   1.05637   1.06438
 Alpha virt. eigenvalues --    1.06778   1.07651   1.08224   1.08404   1.09363
 Alpha virt. eigenvalues --    1.09830   1.10979   1.11471   1.11715   1.13752
 Alpha virt. eigenvalues --    1.13940   1.14483   1.15931   1.16400   1.16896
 Alpha virt. eigenvalues --    1.17709   1.18892   1.19235   1.21326   1.22247
 Alpha virt. eigenvalues --    1.22698   1.24299   1.24656   1.24751   1.25281
 Alpha virt. eigenvalues --    1.26368   1.26691   1.26894   1.29005   1.30588
 Alpha virt. eigenvalues --    1.31307   1.32213   1.33028   1.33979   1.34385
 Alpha virt. eigenvalues --    1.34666   1.35262   1.35807   1.35938   1.36657
 Alpha virt. eigenvalues --    1.37456   1.38973   1.40140   1.40632   1.41953
 Alpha virt. eigenvalues --    1.42513   1.43972   1.44533   1.45039   1.45545
 Alpha virt. eigenvalues --    1.46042   1.46896   1.47031   1.47183   1.48082
 Alpha virt. eigenvalues --    1.48159   1.49636   1.49825   1.50360   1.50444
 Alpha virt. eigenvalues --    1.50805   1.50885   1.51616   1.51896   1.52035
 Alpha virt. eigenvalues --    1.52564   1.52900   1.53503   1.53710   1.54106
 Alpha virt. eigenvalues --    1.54660   1.54696   1.54851   1.55563   1.55724
 Alpha virt. eigenvalues --    1.56352   1.56637   1.57039   1.57335   1.57817
 Alpha virt. eigenvalues --    1.57945   1.58436   1.58783   1.59025   1.59460
 Alpha virt. eigenvalues --    1.59572   1.59778   1.60020   1.60189   1.60417
 Alpha virt. eigenvalues --    1.60641   1.60725   1.61121   1.61811   1.61997
 Alpha virt. eigenvalues --    1.62828   1.63376   1.64282   1.64404   1.64962
 Alpha virt. eigenvalues --    1.65583   1.66010   1.66498   1.67099   1.67788
 Alpha virt. eigenvalues --    1.68194   1.69109   1.69212   1.69497   1.70081
 Alpha virt. eigenvalues --    1.70343   1.71051   1.71114   1.71190   1.71934
 Alpha virt. eigenvalues --    1.72357   1.73331   1.73777   1.74067   1.74480
 Alpha virt. eigenvalues --    1.74735   1.74945   1.75505   1.75778   1.76179
 Alpha virt. eigenvalues --    1.77675   1.78459   1.79829   1.80223   1.80478
 Alpha virt. eigenvalues --    1.81140   1.81790   1.82392   1.82979   1.83790
 Alpha virt. eigenvalues --    1.86403   1.87129   1.88082   1.88812   1.89640
 Alpha virt. eigenvalues --    1.90352   1.91061   1.91511   1.91989   1.92390
 Alpha virt. eigenvalues --    1.93596   1.93933   1.94586   1.95242   1.95416
 Alpha virt. eigenvalues --    1.98149   1.98713   1.99015   1.99516   1.99935
 Alpha virt. eigenvalues --    2.00649   2.00835   2.01493   2.02360   2.02990
 Alpha virt. eigenvalues --    2.03850   2.04553   2.05005   2.05359   2.06173
 Alpha virt. eigenvalues --    2.06415   2.07466   2.08141   2.08853   2.09317
 Alpha virt. eigenvalues --    2.09424   2.09883   2.10653   2.11226   2.11657
 Alpha virt. eigenvalues --    2.11792   2.12555   2.13328   2.13537   2.14578
 Alpha virt. eigenvalues --    2.16908   2.17416   2.18063   2.19032   2.19554
 Alpha virt. eigenvalues --    2.20965   2.21563   2.21826   2.23615   2.24529
 Alpha virt. eigenvalues --    2.24990   2.25590   2.26425   2.26639   2.27149
 Alpha virt. eigenvalues --    2.29576   2.30352   2.30653   2.33800   2.33929
 Alpha virt. eigenvalues --    2.34133   2.35662   2.35722   2.37349   2.38305
 Alpha virt. eigenvalues --    2.39078   2.39749   2.40320   2.40458   2.40569
 Alpha virt. eigenvalues --    2.41627   2.41841   2.42053   2.42335   2.42599
 Alpha virt. eigenvalues --    2.44324   2.44476   2.44802   2.45251   2.46032
 Alpha virt. eigenvalues --    2.46202   2.46439   2.46575   2.47557   2.48439
 Alpha virt. eigenvalues --    2.48652   2.49103   2.49496   2.50893   2.51230
 Alpha virt. eigenvalues --    2.51559   2.51668   2.52599   2.52980   2.53540
 Alpha virt. eigenvalues --    2.53774   2.55986   2.56852   2.57177   2.57506
 Alpha virt. eigenvalues --    2.58561   2.59012   2.60712   2.61898   2.62903
 Alpha virt. eigenvalues --    2.63256   2.63611   2.64189   2.64874   2.65881
 Alpha virt. eigenvalues --    2.66362   2.66539   2.67215   2.68213   2.69185
 Alpha virt. eigenvalues --    2.69743   2.70928   2.71410   2.71791   2.71973
 Alpha virt. eigenvalues --    2.72929   2.74318   2.74759   2.75270   2.75919
 Alpha virt. eigenvalues --    2.76676   2.78167   2.78354   2.79166   2.80681
 Alpha virt. eigenvalues --    2.81216   2.82040   2.84143   2.84440   2.86514
 Alpha virt. eigenvalues --    2.86919   2.87242   2.88338   2.91716   2.92233
 Alpha virt. eigenvalues --    2.92317   2.92980   2.93606   2.94438   2.95323
 Alpha virt. eigenvalues --    2.96611   2.96898   2.97281   2.98045   2.98456
 Alpha virt. eigenvalues --    2.98892   3.01174   3.05952   3.06141   3.06527
 Alpha virt. eigenvalues --    3.08636   3.09257   3.09662   3.11887   3.11943
 Alpha virt. eigenvalues --    3.14603   3.14883   3.15100   3.16519   3.17981
 Alpha virt. eigenvalues --    3.19159   3.20036   3.20391   3.20753   3.20898
 Alpha virt. eigenvalues --    3.21441   3.22386   3.22691   3.24547   3.25470
 Alpha virt. eigenvalues --    3.25607   3.26242   3.27703   3.28312   3.28904
 Alpha virt. eigenvalues --    3.29114   3.29246   3.30417   3.31652   3.32293
 Alpha virt. eigenvalues --    3.32964   3.33145   3.35983   3.39711   3.39974
 Alpha virt. eigenvalues --    3.44422   3.50690   3.52174   3.70683   3.73062
 Alpha virt. eigenvalues --    3.75112   3.75301   3.75764   3.75857   3.76091
 Alpha virt. eigenvalues --    3.76397   3.77707   3.77948   3.78209   3.79299
 Alpha virt. eigenvalues --    3.79302   3.82096   3.83342   3.86266   3.87108
 Alpha virt. eigenvalues --    3.92404   3.92609   3.95491   3.96175   3.97232
 Alpha virt. eigenvalues --    3.98878   3.99495   3.99623   4.01242   4.01550
 Alpha virt. eigenvalues --    4.01738   4.03614   4.04149   4.06920   4.08288
 Alpha virt. eigenvalues --    4.09371   4.12406   4.17764   4.19606   4.20920
 Alpha virt. eigenvalues --    4.22793   4.24474   4.25016   4.25723   4.26416
 Alpha virt. eigenvalues --    4.54490   4.94834   4.95861   4.96511   5.02268
 Alpha virt. eigenvalues --    5.05271   5.06734   5.08377   5.09891   5.21212
 Alpha virt. eigenvalues --    5.23578   5.25229   5.26023   5.26460   5.27684
 Alpha virt. eigenvalues --    5.28591   5.28629   5.65617   5.67274   5.68885
 Alpha virt. eigenvalues --    5.69377   5.73275   5.73909   5.76552   5.79076
 Alpha virt. eigenvalues --    7.81115   7.81702  17.20495  17.22635  17.41855
 Alpha virt. eigenvalues --   17.42889  17.48214  17.53628  23.41787  23.66605
 Alpha virt. eigenvalues --   23.77658  23.77698  23.78318  23.78606  23.79057
 Alpha virt. eigenvalues --   23.79568  23.80006  23.80817  23.80949  23.81598
 Alpha virt. eigenvalues --   23.82626  23.82744  23.83076  23.84465  23.86214
 Alpha virt. eigenvalues --   23.86918  24.05406  24.05557  24.18022  24.18385
 Alpha virt. eigenvalues --   49.88009  49.88724  49.88992  49.89660  49.92385
 Alpha virt. eigenvalues --   49.92514  49.94343  49.95428 188.92391 188.93227
          Condensed to atoms (all electrons):
 Mulliken charges:
               1
     1  C   -0.204516
     2  C    0.176740
     3  C   -0.060148
     4  C   -0.312264
     5  S    0.300927
     6  O   -0.386785
     7  H    0.126115
     8  C   -0.211214
     9  C    0.182908
    10  C   -0.061675
    11  C   -0.311442
    12  S    0.298631
    13  O   -0.386921
    14  H    0.129177
    15  C   -0.032599
    16  H    0.118443
    17  H    0.111769
    18  C   -0.011704
    19  H    0.091915
    20  H    0.127212
    21  O   -0.367048
    22  C   -0.018489
    23  H    0.094583
    24  H    0.098452
    25  C   -0.014865
    26  H    0.120596
    27  H    0.091918
    28  O   -0.368513
    29  C   -0.004279
    30  H    0.099335
    31  H    0.090506
    32  C   -0.008665
    33  H    0.099055
    34  H    0.093881
    35  O   -0.371794
    36  C   -0.101656
    37  H    0.114390
    38  H    0.089055
    39  H    0.089536
    40  C   -0.036497
    41  H    0.117646
    42  H    0.113647
    43  C   -0.016193
    44  H    0.105623
    45  H    0.122946
    46  O   -0.375761
    47  C   -0.003949
    48  H    0.120020
    49  H    0.089626
    50  C   -0.032762
    51  H    0.120156
    52  H    0.088761
    53  O   -0.357267
    54  C   -0.045926
    55  H    0.100103
    56  H    0.119005
    57  C   -0.045896
    58  H    0.101505
    59  H    0.112679
    60  O   -0.359542
    61  C   -0.119140
    62  H    0.115541
    63  H    0.086480
    64  H    0.117891
    65  H    0.125752
    66  H    0.124985
 Sum of Mulliken charges =  -0.00000
 Mulliken charges with hydrogens summed into heavy atoms:
               1
     1  C   -0.204516
     2  C    0.176740
     3  C    0.065966
     4  C   -0.186512
     5  S    0.300927
     6  O   -0.386785
     8  C   -0.211214
     9  C    0.182908
    10  C    0.067502
    11  C   -0.186457
    12  S    0.298631
    13  O   -0.386921
    15  C    0.197614
    18  C    0.207423
    21  O   -0.367048
    22  C    0.174546
    25  C    0.197649
    28  O   -0.368513
    29  C    0.185562
    32  C    0.184271
    35  O   -0.371794
    36  C    0.191325
    40  C    0.194796
    43  C    0.212376
    46  O   -0.375761
    47  C    0.205696
    50  C    0.176156
    53  O   -0.357267
    54  C    0.173182
    57  C    0.168288
    60  O   -0.359542
    61  C    0.200771
 Electronic spatial extent (au):  <R**2>=          39831.3751
 Charge=             -0.0000 electrons
 Dipole moment (field-independent basis, Debye):
    X=              1.6680    Y=             -0.3383    Z=             -0.4453  Tot=              1.7593
 Quadrupole moment (field-independent basis, Debye-Ang):
   XX=           -148.0503   YY=           -194.2256   ZZ=           -212.4422
   XY=              1.4391   XZ=            -14.3003   YZ=              4.1741
 Traceless Quadrupole moment (field-independent basis, Debye-Ang):
   XX=             36.8558   YY=             -9.3196   ZZ=            -27.5362
   XY=              1.4391   XZ=            -14.3003   YZ=              4.1741
 Octapole moment (field-independent basis, Debye-Ang**2):
  XXX=            216.9464  YYY=              2.7136  ZZZ=             -2.9958  XYY=             18.5110
  XXY=              5.7495  XXZ=           -127.9253  XZZ=            -25.3185  YZZ=             -0.7560
  YYZ=              7.0034  XYZ=             23.8223
 Hexadecapole moment (field-independent basis, Debye-Ang**3):
 XXXX=         -39612.5526 YYYY=          -2602.3241 ZZZZ=           -682.7472 XXXY=            120.4083
 XXXZ=            533.6190 YYYX=             35.1136 YYYZ=              2.8818 ZZZX=             17.4930
 ZZZY=             16.5139 XXYY=          -8249.8864 XXZZ=          -8165.3519 YYZZ=           -614.9520
 XXYZ=            420.5617 YYXZ=             39.8356 ZZXY=             13.0078
 N-N= 3.495764937174D+03 E-N=-1.230143865204D+04  KE= 2.250749280200D+03
 No NMR shielding tensors so no spin-rotation constants.
 Leave Link  601 at Fri Mar 13 15:24:10 2020, MaxMem=  6710886400 cpu:               4.6 elap:               0.6
 (Enter /apps/gaussian/g16-a03/l9999.exe)
 1\1\GINC-CX1-141-15-2\FOpt\RB3LYP\6-311G(d,p)\C22H34O8S2\NS5018\13-Mar
 -2020\0\\#p opt b3lyp/6-311g(d,p)\\monomer.pdb\\0,1\C,79.9325547283,0.
 0777013403,0.1086701559\C,80.5300785664,1.3229453538,0.0593394932\C,81
 .9538539932,1.2958065645,0.0754645133\C,82.4393701635,0.0254789196,0.1
 458571863\S,81.1753587893,-1.1627986972,0.1903021087\O,79.7794511174,2
 .4645755188,-0.0624035924\H,82.5490599511,2.1957046159,0.0151684127\C,
 78.5228307783,-0.2368384008,0.0816675862\C,77.9255865703,-1.4819369905
 ,0.1418989882\C,76.5016641086,-1.4545825865,0.1156809832\C,76.01688402
 91,-0.1851689449,0.0265872647\S,77.2806315131,1.002863341,-0.022043340
 2\O,78.6787928051,-2.6172900096,0.2815410713\H,75.9066838474,-2.353767
 7431,0.1881456277\C,79.8292724458,3.4246608188,1.0068536509\H,78.79342
 70288,3.7312898076,1.1836923076\H,80.2015822996,2.9490738716,1.9191564
 656\C,80.6405733472,4.66154516,0.6377315423\H,80.3518606175,5.48282102
 98,1.3119527378\H,80.3842463109,4.9523690094,-0.3833391399\O,82.049796
 9508,4.4921218424,0.6594506766\C,82.6342943039,4.5548550412,1.94997898
 41\H,82.2435389175,5.4253612305,2.4968142127\H,82.3991922931,3.6596718
 066,2.545434828\C,84.1479597148,4.6402041569,1.8070530072\H,84.4989794
 706,3.7919269242,1.2156762096\H,84.5948085243,4.5672137225,2.811296777
 5\O,84.6184761889,5.7929279439,1.1361531681\C,84.5291182077,6.99716399
 24,1.8757061331\H,83.4887022728,7.3171367571,2.0170305369\H,84.9875078
 782,6.8836186743,2.8692187305\C,85.2689001775,8.0641690492,1.088052427
 5\H,84.8305075908,8.1460423485,0.082806334\H,86.3241793513,7.776563282
 7,0.9727954566\O,85.1463420614,9.2805177515,1.7993930655\C,85.79595821
 86,10.3599098419,1.160402314\H,85.6425744458,11.243063326,1.7813212559
 \H,86.8757092765,10.1788545239,1.0576445418\H,85.3782823322,10.5488651
 076,0.1609412882\C,78.5702134774,-3.6383454855,-0.7273092568\H,79.5950
 05718,-3.9677901425,-0.9251121698\H,78.167403499,-3.2102042629,-1.6501
 421211\C,77.7593436454,-4.8417914604,-0.2588906549\H,78.0183843817,-5.
 7041130308,-0.8904558137\H,78.0447148482,-5.0723329164,0.7700988315\O,
 76.3523129931,-4.6604820158,-0.2489977482\C,75.7235083603,-4.781369945
 4,-1.5203024465\H,76.2155093533,-5.5648485804,-2.1062556327\H,75.77888
 07809,-3.8319909981,-2.0752460352\C,74.2614169653,-5.1373990411,-1.297
 5998335\H,73.8456103995,-4.4583092782,-0.547114787\H,73.7032198258,-4.
 9893181883,-2.2324786095\O,74.0823745378,-6.4579695804,-0.8013364021\C
 ,73.6391936754,-7.4235403879,-1.7352284514\H,72.6978860719,-7.10928058
 23,-2.2152997046\H,73.4158337008,-8.3097924545,-1.1373001034\C,74.6349
 116462,-7.7693883274,-2.8506680809\H,74.2374520864,-8.6443396095,-3.39
 21536833\H,74.7094120581,-6.949208576,-3.5690064206\O,75.963405512,-8.
 0064690478,-2.4248324175\C,76.1083435921,-9.0721499304,-1.5004579037\H
 ,77.1785476985,-9.2532887637,-1.3964873725\H,75.6298829946,-9.99079922
 84,-1.8696397315\H,75.695346578,-8.8187819692,-0.5179560115\H,83.46931
 55157,-0.2959586099,0.1682925528\H,74.9869788972,0.1356231116,-0.00521
 39632\\Version=ES64L-G16RevA.03\State=1-A\HF=-2257.2664509\RMSD=7.312e
 -09\RMSF=1.999e-06\Dipole=-0.4530997,-0.4415806,-0.2806887\Quadrupole=
 0.8019194,14.8832267,-15.6851461,12.9129928,12.0925117,13.6283731\PG=C
 01 [X(C22H34O8S2)]\\@


 IF YOU DON'T HAVE THE LAW - ARGUE THE FACTS.
 IF YOU DON'T HAVE THE FACTS - ARGUE THE LAW.
 IF YOU DON'T HAVE EITHER - POUND THE TABLE.
 Job cpu time:       0 days 20 hours 15 minutes 55.6 seconds.
 Elapsed time:       0 days  2 hours 32 minutes 15.4 seconds.
 File lengths (MBytes):  RWF=    392 Int=      0 D2E=      0 Chk=     48 Scr=      1
 Normal termination of Gaussian 16 at Fri Mar 13 15:24:17 2020.
