 Entering Gaussian System, Link 0=g16
 Input=monomer_wb97xd.gjf
 Output=monomer_wb97xd.log
 Initial command:
 /apps/gaussian/g16-a03/l1.exe "/tmp/pbs.1209203.pbs/Gau-23252.inp" -scrdir="/tmp/pbs.1209203.pbs/"
 Entering Link 1 = /apps/gaussian/g16-a03/l1.exe PID=     23253.
  
 Copyright (c) 1988,1990,1992,1993,1995,1998,2003,2009,2016,
            Gaussian, Inc.  All Rights Reserved.
  
 This is part of the Gaussian(R) 16 program.  It is based on
 the Gaussian(R) 09 system (copyright 2009, Gaussian, Inc.),
 the Gaussian(R) 03 system (copyright 2003, Gaussian, Inc.),
 the Gaussian(R) 98 system (copyright 1998, Gaussian, Inc.),
 the Gaussian(R) 94 system (copyright 1995, Gaussian, Inc.),
 the Gaussian 92(TM) system (copyright 1992, Gaussian, Inc.),
 the Gaussian 90(TM) system (copyright 1990, Gaussian, Inc.),
 the Gaussian 88(TM) system (copyright 1988, Gaussian, Inc.),
 the Gaussian 86(TM) system (copyright 1986, Carnegie Mellon
 University), and the Gaussian 82(TM) system (copyright 1983,
 Carnegie Mellon University). Gaussian is a federally registered
 trademark of Gaussian, Inc.
  
 This software contains proprietary and confidential information,
 including trade secrets, belonging to Gaussian, Inc.
  
 This software is provided under written license and may be
 used, copied, transmitted, or stored only in accord with that
 written license.
  
 The following legend is applicable only to US Government
 contracts under FAR:
  
                    RESTRICTED RIGHTS LEGEND
  
 Use, reproduction and disclosure by the US Government is
 subject to restrictions as set forth in subparagraphs (a)
 and (c) of the Commercial Computer Software - Restricted
 Rights clause in FAR 52.227-19.
  
 Gaussian, Inc.
 340 Quinnipiac St., Bldg. 40, Wallingford CT 06492
  
  
 ---------------------------------------------------------------
 Warning -- This program may not be used in any manner that
 competes with the business of Gaussian, Inc. or will provide
 assistance to any competitor of Gaussian, Inc.  The licensee
 of this program is prohibited from giving any competitor of
 Gaussian, Inc. access to this program.  By using this program,
 the user acknowledges that Gaussian, Inc. is engaged in the
 business of creating and licensing software in the field of
 computational chemistry and represents and warrants to the
 licensee that it is not a competitor of Gaussian, Inc. and that
 it will not use this program in any manner prohibited above.
 ---------------------------------------------------------------
  

 Cite this work as:
 Gaussian 16, Revision A.03,
 M. J. Frisch, G. W. Trucks, H. B. Schlegel, G. E. Scuseria, 
 M. A. Robb, J. R. Cheeseman, G. Scalmani, V. Barone, 
 G. A. Petersson, H. Nakatsuji, X. Li, M. Caricato, A. V. Marenich, 
 J. Bloino, B. G. Janesko, R. Gomperts, B. Mennucci, H. P. Hratchian, 
 J. V. Ortiz, A. F. Izmaylov, J. L. Sonnenberg, D. Williams-Young, 
 F. Ding, F. Lipparini, F. Egidi, J. Goings, B. Peng, A. Petrone, 
 T. Henderson, D. Ranasinghe, V. G. Zakrzewski, J. Gao, N. Rega, 
 G. Zheng, W. Liang, M. Hada, M. Ehara, K. Toyota, R. Fukuda, 
 J. Hasegawa, M. Ishida, T. Nakajima, Y. Honda, O. Kitao, H. Nakai, 
 T. Vreven, K. Throssell, J. A. Montgomery, Jr., J. E. Peralta, 
 F. Ogliaro, M. J. Bearpark, J. J. Heyd, E. N. Brothers, K. N. Kudin, 
 V. N. Staroverov, T. A. Keith, R. Kobayashi, J. Normand, 
 K. Raghavachari, A. P. Rendell, J. C. Burant, S. S. Iyengar, 
 J. Tomasi, M. Cossi, J. M. Millam, M. Klene, C. Adamo, R. Cammi, 
 J. W. Ochterski, R. L. Martin, K. Morokuma, O. Farkas, 
 J. B. Foresman, and D. J. Fox, Gaussian, Inc., Wallingford CT, 2016.
 
 ******************************************
 Gaussian 16:  ES64L-G16RevA.03 25-Dec-2016
                13-Mar-2020 
 ******************************************
 %mem=50GB
 %nprocshared=8
 Will use up to    8 processors via shared memory.
 -------------------------
 #p opt wb97xd/6-311g(d,p)
 -------------------------
 1/18=20,19=15,26=3,38=1/1,3;
 2/9=110,12=2,17=6,18=5,40=1/2;
 3/5=4,6=6,7=101,11=2,25=1,30=1,71=1,74=-58/1,2,3;
 4//1;
 5/5=2,38=5/2;
 6/7=2,8=2,9=2,10=2,28=1/1;
 7//1,2,3,16;
 1/18=20,19=15,26=3/3(2);
 2/9=110/2;
 99//99;
 2/9=110/2;
 3/5=4,6=6,7=101,11=2,25=1,30=1,71=1,74=-58/1,2,3;
 4/5=5,16=3,69=1/1;
 5/5=2,38=5/2;
 7//1,2,3,16;
 1/18=20,19=15,26=3/3(-5);
 2/9=110/2;
 6/7=2,8=2,9=2,10=2,19=2,28=1/1;
 99/9=1/99;
 Leave Link    1 at Fri Mar 13 16:09:10 2020, MaxMem=  6710886400 cpu:               0.2 elap:               0.0
 (Enter /apps/gaussian/g16-a03/l101.exe)
 ------------------
 monomer_wb97xd.pdb
 ------------------
 Symbolic Z-matrix:
 Charge =  0 Multiplicity = 1
 C                    -0.346     0.347     0.033 
 C                    -1.687     0.17     -0.25 
 C                    -2.437     1.377    -0.337 
 C                    -1.664     2.476    -0.111 
 S                    -0.009     2.064     0.209 
 O                    -2.202    -1.079    -0.487 
 H                    -3.49      1.387    -0.578 
 C                     0.68     -0.662     0.161 
 C                     2.019    -0.484     0.455 
 C                     2.77     -1.692     0.532 
 C                     2.001    -2.788     0.287 
 S                     0.347    -2.377    -0.037 
 O                     2.524     0.763     0.709 
 H                     3.821    -1.701     0.785 
 C                    -3.2      -1.583     0.416 
 H                    -2.923    -2.622     0.622 
 H                    -3.164    -1.03      1.36 
 C                    -4.596    -1.57     -0.197 
 H                    -5.231    -2.274     0.364 
 H                    -4.525    -1.923    -1.228 
 O                    -5.222    -0.297    -0.256 
 C                    -5.807     0.132     0.962 
 H                    -6.406    -0.682     1.398 
 H                    -5.043     0.411     1.703 
 C                    -6.672     1.356     0.695 
 H                    -6.063     2.125     0.215 
 H                    -7.023     1.75      1.662 
 O                    -7.763     1.136    -0.178 
 C                    -8.832     0.389     0.374 
 H                    -8.557    -0.66      0.543 
 H                    -9.154     0.815     1.336 
 C                    -9.978     0.443    -0.62 
 H                    -9.639     0.051    -1.59 
 H                    -10.292    1.486    -0.769 
 O                    -11.035   -0.338    -0.095 
 C                    -12.168   -0.369    -0.938 
 H                    -12.917   -0.992    -0.45 
 H                    -12.585    0.636    -1.093 
 H                    -11.929   -0.802    -1.921 
 C                     3.594     1.25     -0.122 
 H                     3.345     2.292    -0.343 
 H                     3.615     0.698    -1.066 
 C                     4.945     1.217     0.584 
 H                     5.623     1.917     0.074 
 H                     4.807     1.561     1.612 
 O                     5.555    -0.061     0.672 
 C                     6.209    -0.496    -0.515 
 H                     6.688     0.356    -1.01 
 H                     5.49     -0.956    -1.21 
 C                     7.255    -1.531    -0.131 
 H                     6.794    -2.265     0.536 
 H                     7.593    -2.061    -1.033 
 O                     8.357    -0.971     0.573 
 C                     9.55     -0.797    -0.167 
 H                     9.881    -1.747    -0.617 
 H                     10.3     -0.513     0.574 
 C                     9.485     0.249    -1.288 
 H                     10.512    0.404    -1.659 
 H                     8.89     -0.121    -2.127 
 O                     8.89      1.483    -0.932 
 C                     9.534     2.166     0.13 
 H                     9.087     3.16      0.179 
 H                     10.612    2.274    -0.058 
 H                     9.383     1.662     1.091 
 H                    -1.96      3.514    -0.117 
 H                     2.299    -3.826     0.284 
 
 ITRead=  0  0  0  0  0  0  0  0  0  0  0  0  0  0  0  0  0  0  0  0
 ITRead=  0  0  0  0  0  0  0  0  0  0  0  0  0  0  0  0  0  0  0  0
 ITRead=  0  0  0  0  0  0  0  0  0  0  0  0  0  0  0  0  0  0  0  0
 ITRead=  0  0  0  0  0  0
 MicOpt= -1 -1 -1 -1 -1 -1 -1 -1 -1 -1 -1 -1 -1 -1 -1 -1 -1 -1 -1 -1
 MicOpt= -1 -1 -1 -1 -1 -1 -1 -1 -1 -1 -1 -1 -1 -1 -1 -1 -1 -1 -1 -1
 MicOpt= -1 -1 -1 -1 -1 -1 -1 -1 -1 -1 -1 -1 -1 -1 -1 -1 -1 -1 -1 -1
 MicOpt= -1 -1 -1 -1 -1 -1
 NAtoms=     66 NQM=       66 NQMF=       0 NMMI=      0 NMMIF=      0
                NMic=       0 NMicF=      0.
                    Isotopes and Nuclear Properties:
 (Nuclear quadrupole moments (NQMom) in fm**2, nuclear magnetic moments (NMagM)
  in nuclear magnetons)

  Atom         1           2           3           4           5           6           7           8           9          10
 IAtWgt=          12          12          12          12          32          16           1          12          12          12
 AtmWgt=  12.0000000  12.0000000  12.0000000  12.0000000  31.9720718  15.9949146   1.0078250  12.0000000  12.0000000  12.0000000
 NucSpn=           0           0           0           0           0           0           1           0           0           0
 AtZEff=  -0.0000000  -0.0000000  -0.0000000  -0.0000000  -0.0000000  -0.0000000  -0.0000000  -0.0000000  -0.0000000  -0.0000000
 NQMom=    0.0000000   0.0000000   0.0000000   0.0000000   0.0000000   0.0000000   0.0000000   0.0000000   0.0000000   0.0000000
 NMagM=    0.0000000   0.0000000   0.0000000   0.0000000   0.0000000   0.0000000   2.7928460   0.0000000   0.0000000   0.0000000
 AtZNuc=   6.0000000   6.0000000   6.0000000   6.0000000  16.0000000   8.0000000   1.0000000   6.0000000   6.0000000   6.0000000

  Atom        11          12          13          14          15          16          17          18          19          20
 IAtWgt=          12          32          16           1          12           1           1          12           1           1
 AtmWgt=  12.0000000  31.9720718  15.9949146   1.0078250  12.0000000   1.0078250   1.0078250  12.0000000   1.0078250   1.0078250
 NucSpn=           0           0           0           1           0           1           1           0           1           1
 AtZEff=  -0.0000000  -0.0000000  -0.0000000  -0.0000000  -0.0000000  -0.0000000  -0.0000000  -0.0000000  -0.0000000  -0.0000000
 NQMom=    0.0000000   0.0000000   0.0000000   0.0000000   0.0000000   0.0000000   0.0000000   0.0000000   0.0000000   0.0000000
 NMagM=    0.0000000   0.0000000   0.0000000   2.7928460   0.0000000   2.7928460   2.7928460   0.0000000   2.7928460   2.7928460
 AtZNuc=   6.0000000  16.0000000   8.0000000   1.0000000   6.0000000   1.0000000   1.0000000   6.0000000   1.0000000   1.0000000

  Atom        21          22          23          24          25          26          27          28          29          30
 IAtWgt=          16          12           1           1          12           1           1          16          12           1
 AtmWgt=  15.9949146  12.0000000   1.0078250   1.0078250  12.0000000   1.0078250   1.0078250  15.9949146  12.0000000   1.0078250
 NucSpn=           0           0           1           1           0           1           1           0           0           1
 AtZEff=  -0.0000000  -0.0000000  -0.0000000  -0.0000000  -0.0000000  -0.0000000  -0.0000000  -0.0000000  -0.0000000  -0.0000000
 NQMom=    0.0000000   0.0000000   0.0000000   0.0000000   0.0000000   0.0000000   0.0000000   0.0000000   0.0000000   0.0000000
 NMagM=    0.0000000   0.0000000   2.7928460   2.7928460   0.0000000   2.7928460   2.7928460   0.0000000   0.0000000   2.7928460
 AtZNuc=   8.0000000   6.0000000   1.0000000   1.0000000   6.0000000   1.0000000   1.0000000   8.0000000   6.0000000   1.0000000

  Atom        31          32          33          34          35          36          37          38          39          40
 IAtWgt=           1          12           1           1          16          12           1           1           1          12
 AtmWgt=   1.0078250  12.0000000   1.0078250   1.0078250  15.9949146  12.0000000   1.0078250   1.0078250   1.0078250  12.0000000
 NucSpn=           1           0           1           1           0           0           1           1           1           0
 AtZEff=  -0.0000000  -0.0000000  -0.0000000  -0.0000000  -0.0000000  -0.0000000  -0.0000000  -0.0000000  -0.0000000  -0.0000000
 NQMom=    0.0000000   0.0000000   0.0000000   0.0000000   0.0000000   0.0000000   0.0000000   0.0000000   0.0000000   0.0000000
 NMagM=    2.7928460   0.0000000   2.7928460   2.7928460   0.0000000   0.0000000   2.7928460   2.7928460   2.7928460   0.0000000
 AtZNuc=   1.0000000   6.0000000   1.0000000   1.0000000   8.0000000   6.0000000   1.0000000   1.0000000   1.0000000   6.0000000

  Atom        41          42          43          44          45          46          47          48          49          50
 IAtWgt=           1           1          12           1           1          16          12           1           1          12
 AtmWgt=   1.0078250   1.0078250  12.0000000   1.0078250   1.0078250  15.9949146  12.0000000   1.0078250   1.0078250  12.0000000
 NucSpn=           1           1           0           1           1           0           0           1           1           0
 AtZEff=  -0.0000000  -0.0000000  -0.0000000  -0.0000000  -0.0000000  -0.0000000  -0.0000000  -0.0000000  -0.0000000  -0.0000000
 NQMom=    0.0000000   0.0000000   0.0000000   0.0000000   0.0000000   0.0000000   0.0000000   0.0000000   0.0000000   0.0000000
 NMagM=    2.7928460   2.7928460   0.0000000   2.7928460   2.7928460   0.0000000   0.0000000   2.7928460   2.7928460   0.0000000
 AtZNuc=   1.0000000   1.0000000   6.0000000   1.0000000   1.0000000   8.0000000   6.0000000   1.0000000   1.0000000   6.0000000

  Atom        51          52          53          54          55          56          57          58          59          60
 IAtWgt=           1           1          16          12           1           1          12           1           1          16
 AtmWgt=   1.0078250   1.0078250  15.9949146  12.0000000   1.0078250   1.0078250  12.0000000   1.0078250   1.0078250  15.9949146
 NucSpn=           1           1           0           0           1           1           0           1           1           0
 AtZEff=  -0.0000000  -0.0000000  -0.0000000  -0.0000000  -0.0000000  -0.0000000  -0.0000000  -0.0000000  -0.0000000  -0.0000000
 NQMom=    0.0000000   0.0000000   0.0000000   0.0000000   0.0000000   0.0000000   0.0000000   0.0000000   0.0000000   0.0000000
 NMagM=    2.7928460   2.7928460   0.0000000   0.0000000   2.7928460   2.7928460   0.0000000   2.7928460   2.7928460   0.0000000
 AtZNuc=   1.0000000   1.0000000   8.0000000   6.0000000   1.0000000   1.0000000   6.0000000   1.0000000   1.0000000   8.0000000

  Atom        61          62          63          64          65          66
 IAtWgt=          12           1           1           1           1           1
 AtmWgt=  12.0000000   1.0078250   1.0078250   1.0078250   1.0078250   1.0078250
 NucSpn=           0           1           1           1           1           1
 AtZEff=  -0.0000000  -0.0000000  -0.0000000  -0.0000000  -0.0000000  -0.0000000
 NQMom=    0.0000000   0.0000000   0.0000000   0.0000000   0.0000000   0.0000000
 NMagM=    0.0000000   2.7928460   2.7928460   2.7928460   2.7928460   2.7928460
 AtZNuc=   6.0000000   1.0000000   1.0000000   1.0000000   1.0000000   1.0000000
 Leave Link  101 at Fri Mar 13 16:09:10 2020, MaxMem=  6710886400 cpu:               6.5 elap:               0.8
 (Enter /apps/gaussian/g16-a03/l103.exe)

 GradGradGradGradGradGradGradGradGradGradGradGradGradGradGradGradGradGrad
 Berny optimization.
 Initialization pass.
                           ----------------------------
                           !    Initial Parameters    !
                           ! (Angstroms and Degrees)  !
 --------------------------                            --------------------------
 ! Name  Definition              Value          Derivative Info.                !
 --------------------------------------------------------------------------------
 ! R1    R(1,2)                  1.3819         estimate D2E/DX2                !
 ! R2    R(1,5)                  1.7586         estimate D2E/DX2                !
 ! R3    R(1,8)                  1.4447         estimate D2E/DX2                !
 ! R4    R(2,3)                  1.4237         estimate D2E/DX2                !
 ! R5    R(2,6)                  1.3716         estimate D2E/DX2                !
 ! R6    R(3,4)                  1.3625         estimate D2E/DX2                !
 ! R7    R(3,7)                  1.0803         estimate D2E/DX2                !
 ! R8    R(4,5)                  1.7353         estimate D2E/DX2                !
 ! R9    R(4,65)                 1.0794         estimate D2E/DX2                !
 ! R10   R(6,15)                 1.4372         estimate D2E/DX2                !
 ! R11   R(8,9)                  1.3824         estimate D2E/DX2                !
 ! R12   R(8,12)                 1.7582         estimate D2E/DX2                !
 ! R13   R(9,10)                 1.4245         estimate D2E/DX2                !
 ! R14   R(9,13)                 1.3691         estimate D2E/DX2                !
 ! R15   R(10,11)                1.3611         estimate D2E/DX2                !
 ! R16   R(10,14)                1.0811         estimate D2E/DX2                !
 ! R17   R(11,12)                1.7348         estimate D2E/DX2                !
 ! R18   R(11,66)                1.0799         estimate D2E/DX2                !
 ! R19   R(13,40)                1.4397         estimate D2E/DX2                !
 ! R20   R(15,16)                1.0948         estimate D2E/DX2                !
 ! R21   R(15,17)                1.0946         estimate D2E/DX2                !
 ! R22   R(15,18)                1.5247         estimate D2E/DX2                !
 ! R23   R(18,19)                1.1016         estimate D2E/DX2                !
 ! R24   R(18,20)                1.0921         estimate D2E/DX2                !
 ! R25   R(18,21)                1.4198         estimate D2E/DX2                !
 ! R26   R(21,22)                1.4177         estimate D2E/DX2                !
 ! R27   R(22,23)                1.1007         estimate D2E/DX2                !
 ! R28   R(22,24)                1.1003         estimate D2E/DX2                !
 ! R29   R(22,25)                1.5224         estimate D2E/DX2                !
 ! R30   R(25,26)                1.0921         estimate D2E/DX2                !
 ! R31   R(25,27)                1.1016         estimate D2E/DX2                !
 ! R32   R(25,28)                1.4145         estimate D2E/DX2                !
 ! R33   R(28,29)                1.4161         estimate D2E/DX2                !
 ! R34   R(29,30)                1.0975         estimate D2E/DX2                !
 ! R35   R(29,31)                1.1003         estimate D2E/DX2                !
 ! R36   R(29,32)                1.518          estimate D2E/DX2                !
 ! R37   R(32,33)                1.0998         estimate D2E/DX2                !
 ! R38   R(32,34)                1.0994         estimate D2E/DX2                !
 ! R39   R(32,35)                1.4152         estimate D2E/DX2                !
 ! R40   R(35,36)                1.4126         estimate D2E/DX2                !
 ! R41   R(36,37)                1.0896         estimate D2E/DX2                !
 ! R42   R(36,38)                1.0991         estimate D2E/DX2                !
 ! R43   R(36,39)                1.1004         estimate D2E/DX2                !
 ! R44   R(40,41)                1.0939         estimate D2E/DX2                !
 ! R45   R(40,42)                1.0937         estimate D2E/DX2                !
 ! R46   R(40,43)                1.5247         estimate D2E/DX2                !
 ! R47   R(43,44)                1.0999         estimate D2E/DX2                !
 ! R48   R(43,45)                1.0928         estimate D2E/DX2                !
 ! R49   R(43,46)                1.4188         estimate D2E/DX2                !
 ! R50   R(46,47)                1.4233         estimate D2E/DX2                !
 ! R51   R(47,48)                1.0956         estimate D2E/DX2                !
 ! R52   R(47,49)                1.1007         estimate D2E/DX2                !
 ! R53   R(47,50)                1.5208         estimate D2E/DX2                !
 ! R54   R(50,51)                1.0937         estimate D2E/DX2                !
 ! R55   R(50,52)                1.0994         estimate D2E/DX2                !
 ! R56   R(50,53)                1.4225         estimate D2E/DX2                !
 ! R57   R(53,54)                1.4146         estimate D2E/DX2                !
 ! R58   R(54,55)                1.1021         estimate D2E/DX2                !
 ! R59   R(54,56)                1.0919         estimate D2E/DX2                !
 ! R60   R(54,57)                1.5346         estimate D2E/DX2                !
 ! R61   R(57,58)                1.1029         estimate D2E/DX2                !
 ! R62   R(57,59)                1.0931         estimate D2E/DX2                !
 ! R63   R(57,60)                1.4155         estimate D2E/DX2                !
 ! R64   R(60,61)                1.4174         estimate D2E/DX2                !
 ! R65   R(61,62)                1.091          estimate D2E/DX2                !
 ! R66   R(61,63)                1.0996         estimate D2E/DX2                !
 ! R67   R(61,64)                1.0956         estimate D2E/DX2                !
 ! A1    A(2,1,5)              109.3602         estimate D2E/DX2                !
 ! A2    A(2,1,8)              128.159          estimate D2E/DX2                !
 ! A3    A(5,1,8)              122.4756         estimate D2E/DX2                !
 ! A4    A(1,2,3)              114.5272         estimate D2E/DX2                !
 ! A5    A(1,2,6)              121.0885         estimate D2E/DX2                !
 ! A6    A(3,2,6)              124.3078         estimate D2E/DX2                !
 ! A7    A(2,3,4)              112.0135         estimate D2E/DX2                !
 ! A8    A(2,3,7)              122.3424         estimate D2E/DX2                !
 ! A9    A(4,3,7)              125.6304         estimate D2E/DX2                !
 ! A10   A(3,4,5)              112.3444         estimate D2E/DX2                !
 ! A11   A(3,4,65)             128.2555         estimate D2E/DX2                !
 ! A12   A(5,4,65)             119.399          estimate D2E/DX2                !
 ! A13   A(1,5,4)               91.7529         estimate D2E/DX2                !
 ! A14   A(2,6,15)             118.1318         estimate D2E/DX2                !
 ! A15   A(1,8,9)              128.0829         estimate D2E/DX2                !
 ! A16   A(1,8,12)             122.4638         estimate D2E/DX2                !
 ! A17   A(9,8,12)             109.4508         estimate D2E/DX2                !
 ! A18   A(8,9,10)             114.3906         estimate D2E/DX2                !
 ! A19   A(8,9,13)             120.9301         estimate D2E/DX2                !
 ! A20   A(10,9,13)            124.6027         estimate D2E/DX2                !
 ! A21   A(9,10,11)            112.0403         estimate D2E/DX2                !
 ! A22   A(9,10,14)            122.1579         estimate D2E/DX2                !
 ! A23   A(11,10,14)           125.7814         estimate D2E/DX2                !
 ! A24   A(10,11,12)           112.4273         estimate D2E/DX2                !
 ! A25   A(10,11,66)           128.211          estimate D2E/DX2                !
 ! A26   A(12,11,66)           119.359          estimate D2E/DX2                !
 ! A27   A(8,12,11)             91.6895         estimate D2E/DX2                !
 ! A28   A(9,13,40)            118.369          estimate D2E/DX2                !
 ! A29   A(6,15,16)            105.9819         estimate D2E/DX2                !
 ! A30   A(6,15,17)            109.9897         estimate D2E/DX2                !
 ! A31   A(6,15,18)            112.3461         estimate D2E/DX2                !
 ! A32   A(16,15,17)           107.9892         estimate D2E/DX2                !
 ! A33   A(16,15,18)           108.3839         estimate D2E/DX2                !
 ! A34   A(17,15,18)           111.871          estimate D2E/DX2                !
 ! A35   A(15,18,19)           108.5163         estimate D2E/DX2                !
 ! A36   A(15,18,20)           108.4984         estimate D2E/DX2                !
 ! A37   A(15,18,21)           115.3427         estimate D2E/DX2                !
 ! A38   A(19,18,20)           108.1605         estimate D2E/DX2                !
 ! A39   A(19,18,21)           109.8764         estimate D2E/DX2                !
 ! A40   A(20,18,21)           106.2154         estimate D2E/DX2                !
 ! A41   A(18,21,22)           114.6802         estimate D2E/DX2                !
 ! A42   A(21,22,23)           109.9441         estimate D2E/DX2                !
 ! A43   A(21,22,24)           111.6425         estimate D2E/DX2                !
 ! A44   A(21,22,25)           109.0914         estimate D2E/DX2                !
 ! A45   A(23,22,24)           107.3758         estimate D2E/DX2                !
 ! A46   A(23,22,25)           110.7843         estimate D2E/DX2                !
 ! A47   A(24,22,25)           107.9852         estimate D2E/DX2                !
 ! A48   A(22,25,26)           109.0491         estimate D2E/DX2                !
 ! A49   A(22,25,27)           108.3394         estimate D2E/DX2                !
 ! A50   A(22,25,28)           114.9251         estimate D2E/DX2                !
 ! A51   A(26,25,27)           108.159          estimate D2E/DX2                !
 ! A52   A(26,25,28)           105.5671         estimate D2E/DX2                !
 ! A53   A(27,25,28)           110.5876         estimate D2E/DX2                !
 ! A54   A(25,28,29)           115.0682         estimate D2E/DX2                !
 ! A55   A(28,29,30)           112.0268         estimate D2E/DX2                !
 ! A56   A(28,29,31)           110.946          estimate D2E/DX2                !
 ! A57   A(28,29,32)           107.2103         estimate D2E/DX2                !
 ! A58   A(30,29,31)           107.984          estimate D2E/DX2                !
 ! A59   A(30,29,32)           108.9045         estimate D2E/DX2                !
 ! A60   A(31,29,32)           109.7436         estimate D2E/DX2                !
 ! A61   A(29,32,33)           109.4            estimate D2E/DX2                !
 ! A62   A(29,32,34)           109.7625         estimate D2E/DX2                !
 ! A63   A(29,32,35)           107.5364         estimate D2E/DX2                !
 ! A64   A(33,32,34)           107.8581         estimate D2E/DX2                !
 ! A65   A(33,32,35)           111.1442         estimate D2E/DX2                !
 ! A66   A(34,32,35)           111.1317         estimate D2E/DX2                !
 ! A67   A(32,35,36)           112.9415         estimate D2E/DX2                !
 ! A68   A(35,36,37)           107.2549         estimate D2E/DX2                !
 ! A69   A(35,36,38)           111.6184         estimate D2E/DX2                !
 ! A70   A(35,36,39)           111.5643         estimate D2E/DX2                !
 ! A71   A(37,36,38)           108.9764         estimate D2E/DX2                !
 ! A72   A(37,36,39)           108.9288         estimate D2E/DX2                !
 ! A73   A(38,36,39)           108.4355         estimate D2E/DX2                !
 ! A74   A(13,40,41)           105.6442         estimate D2E/DX2                !
 ! A75   A(13,40,42)           109.9828         estimate D2E/DX2                !
 ! A76   A(13,40,43)           112.5791         estimate D2E/DX2                !
 ! A77   A(41,40,42)           108.1041         estimate D2E/DX2                !
 ! A78   A(41,40,43)           108.4127         estimate D2E/DX2                !
 ! A79   A(42,40,43)           111.8211         estimate D2E/DX2                !
 ! A80   A(40,43,44)           108.5249         estimate D2E/DX2                !
 ! A81   A(40,43,45)           108.4745         estimate D2E/DX2                !
 ! A82   A(40,43,46)           115.4143         estimate D2E/DX2                !
 ! A83   A(44,43,45)           108.282          estimate D2E/DX2                !
 ! A84   A(44,43,46)           109.6934         estimate D2E/DX2                !
 ! A85   A(45,43,46)           106.2299         estimate D2E/DX2                !
 ! A86   A(43,46,47)           114.904          estimate D2E/DX2                !
 ! A87   A(46,47,48)           109.877          estimate D2E/DX2                !
 ! A88   A(46,47,49)           110.741          estimate D2E/DX2                !
 ! A89   A(46,47,50)           108.2674         estimate D2E/DX2                !
 ! A90   A(48,47,49)           108.9835         estimate D2E/DX2                !
 ! A91   A(48,47,50)           110.0363         estimate D2E/DX2                !
 ! A92   A(49,47,50)           108.9227         estimate D2E/DX2                !
 ! A93   A(47,50,51)           108.7125         estimate D2E/DX2                !
 ! A94   A(47,50,52)           109.4129         estimate D2E/DX2                !
 ! A95   A(47,50,53)           112.9461         estimate D2E/DX2                !
 ! A96   A(51,50,52)           107.8426         estimate D2E/DX2                !
 ! A97   A(51,50,53)           106.7928         estimate D2E/DX2                !
 ! A98   A(52,50,53)           110.9549         estimate D2E/DX2                !
 ! A99   A(50,53,54)           116.2859         estimate D2E/DX2                !
 ! A100  A(53,54,55)           111.1531         estimate D2E/DX2                !
 ! A101  A(53,54,56)           104.8484         estimate D2E/DX2                !
 ! A102  A(53,54,57)           115.4831         estimate D2E/DX2                !
 ! A103  A(55,54,56)           107.1582         estimate D2E/DX2                !
 ! A104  A(55,54,57)           107.5782         estimate D2E/DX2                !
 ! A105  A(56,54,57)           110.337          estimate D2E/DX2                !
 ! A106  A(54,57,58)           107.5823         estimate D2E/DX2                !
 ! A107  A(54,57,59)           110.6722         estimate D2E/DX2                !
 ! A108  A(54,57,60)           115.3606         estimate D2E/DX2                !
 ! A109  A(58,57,59)           107.2323         estimate D2E/DX2                !
 ! A110  A(58,57,60)           110.7023         estimate D2E/DX2                !
 ! A111  A(59,57,60)           105.0302         estimate D2E/DX2                !
 ! A112  A(57,60,61)           114.6796         estimate D2E/DX2                !
 ! A113  A(60,61,62)           106.6499         estimate D2E/DX2                !
 ! A114  A(60,61,63)           111.3863         estimate D2E/DX2                !
 ! A115  A(60,61,64)           111.8955         estimate D2E/DX2                !
 ! A116  A(62,61,63)           108.655          estimate D2E/DX2                !
 ! A117  A(62,61,64)           108.8604         estimate D2E/DX2                !
 ! A118  A(63,61,64)           109.2851         estimate D2E/DX2                !
 ! D1    D(5,1,2,3)              0.4595         estimate D2E/DX2                !
 ! D2    D(5,1,2,6)            177.4103         estimate D2E/DX2                !
 ! D3    D(8,1,2,3)           -178.7136         estimate D2E/DX2                !
 ! D4    D(8,1,2,6)             -1.7628         estimate D2E/DX2                !
 ! D5    D(2,1,5,4)             -0.3318         estimate D2E/DX2                !
 ! D6    D(8,1,5,4)            178.8975         estimate D2E/DX2                !
 ! D7    D(2,1,8,9)           -179.417          estimate D2E/DX2                !
 ! D8    D(2,1,8,12)            -0.0579         estimate D2E/DX2                !
 ! D9    D(5,1,8,9)              1.5077         estimate D2E/DX2                !
 ! D10   D(5,1,8,12)          -179.1332         estimate D2E/DX2                !
 ! D11   D(1,2,3,4)             -0.3753         estimate D2E/DX2                !
 ! D12   D(1,2,3,7)            178.3469         estimate D2E/DX2                !
 ! D13   D(6,2,3,4)           -177.214          estimate D2E/DX2                !
 ! D14   D(6,2,3,7)              1.5082         estimate D2E/DX2                !
 ! D15   D(1,2,6,15)           117.323          estimate D2E/DX2                !
 ! D16   D(3,2,6,15)           -66.0357         estimate D2E/DX2                !
 ! D17   D(2,3,4,5)              0.1041         estimate D2E/DX2                !
 ! D18   D(2,3,4,65)           179.7131         estimate D2E/DX2                !
 ! D19   D(7,3,4,5)           -178.5677         estimate D2E/DX2                !
 ! D20   D(7,3,4,65)             1.0413         estimate D2E/DX2                !
 ! D21   D(3,4,5,1)              0.1309         estimate D2E/DX2                !
 ! D22   D(65,4,5,1)          -179.5167         estimate D2E/DX2                !
 ! D23   D(2,6,15,16)         -135.7066         estimate D2E/DX2                !
 ! D24   D(2,6,15,17)          -19.2171         estimate D2E/DX2                !
 ! D25   D(2,6,15,18)          106.1012         estimate D2E/DX2                !
 ! D26   D(1,8,9,10)           179.0013         estimate D2E/DX2                !
 ! D27   D(1,8,9,13)             2.043          estimate D2E/DX2                !
 ! D28   D(12,8,9,10)           -0.4252         estimate D2E/DX2                !
 ! D29   D(12,8,9,13)         -177.3835         estimate D2E/DX2                !
 ! D30   D(1,8,12,11)         -179.2072         estimate D2E/DX2                !
 ! D31   D(9,8,12,11)            0.2578         estimate D2E/DX2                !
 ! D32   D(8,9,10,11)            0.4153         estimate D2E/DX2                !
 ! D33   D(8,9,10,14)         -178.0295         estimate D2E/DX2                !
 ! D34   D(13,9,10,11)         177.2453         estimate D2E/DX2                !
 ! D35   D(13,9,10,14)          -1.1995         estimate D2E/DX2                !
 ! D36   D(8,9,13,40)         -121.687          estimate D2E/DX2                !
 ! D37   D(10,9,13,40)          61.6789         estimate D2E/DX2                !
 ! D38   D(9,10,11,12)          -0.2019         estimate D2E/DX2                !
 ! D39   D(9,10,11,66)        -179.5896         estimate D2E/DX2                !
 ! D40   D(14,10,11,12)        178.1752         estimate D2E/DX2                !
 ! D41   D(14,10,11,66)         -1.2126         estimate D2E/DX2                !
 ! D42   D(10,11,12,8)          -0.0308         estimate D2E/DX2                !
 ! D43   D(66,11,12,8)         179.4172         estimate D2E/DX2                !
 ! D44   D(9,13,40,41)         136.8346         estimate D2E/DX2                !
 ! D45   D(9,13,40,42)          20.3983         estimate D2E/DX2                !
 ! D46   D(9,13,40,43)        -105.0215         estimate D2E/DX2                !
 ! D47   D(6,15,18,19)         159.9038         estimate D2E/DX2                !
 ! D48   D(6,15,18,20)          42.6035         estimate D2E/DX2                !
 ! D49   D(6,15,18,21)         -76.3613         estimate D2E/DX2                !
 ! D50   D(16,15,18,19)         43.1399         estimate D2E/DX2                !
 ! D51   D(16,15,18,20)        -74.1604         estimate D2E/DX2                !
 ! D52   D(16,15,18,21)        166.8748         estimate D2E/DX2                !
 ! D53   D(17,15,18,19)        -75.8133         estimate D2E/DX2                !
 ! D54   D(17,15,18,20)        166.8864         estimate D2E/DX2                !
 ! D55   D(17,15,18,21)         47.9216         estimate D2E/DX2                !
 ! D56   D(15,18,21,22)        -79.9186         estimate D2E/DX2                !
 ! D57   D(19,18,21,22)         43.0974         estimate D2E/DX2                !
 ! D58   D(20,18,21,22)        159.86           estimate D2E/DX2                !
 ! D59   D(18,21,22,23)        -47.0474         estimate D2E/DX2                !
 ! D60   D(18,21,22,24)         72.0152         estimate D2E/DX2                !
 ! D61   D(18,21,22,25)       -168.7194         estimate D2E/DX2                !
 ! D62   D(21,22,25,26)        -55.8526         estimate D2E/DX2                !
 ! D63   D(21,22,25,27)       -173.3564         estimate D2E/DX2                !
 ! D64   D(21,22,25,28)         62.4114         estimate D2E/DX2                !
 ! D65   D(23,22,25,26)       -177.0139         estimate D2E/DX2                !
 ! D66   D(23,22,25,27)         65.4823         estimate D2E/DX2                !
 ! D67   D(23,22,25,28)        -58.7499         estimate D2E/DX2                !
 ! D68   D(24,22,25,26)         65.6603         estimate D2E/DX2                !
 ! D69   D(24,22,25,27)        -51.8435         estimate D2E/DX2                !
 ! D70   D(24,22,25,28)       -176.0757         estimate D2E/DX2                !
 ! D71   D(22,25,28,29)         72.8575         estimate D2E/DX2                !
 ! D72   D(26,25,28,29)       -166.9392         estimate D2E/DX2                !
 ! D73   D(27,25,28,29)        -50.1802         estimate D2E/DX2                !
 ! D74   D(25,28,29,30)        -69.1736         estimate D2E/DX2                !
 ! D75   D(25,28,29,31)         51.5897         estimate D2E/DX2                !
 ! D76   D(25,28,29,32)        171.407          estimate D2E/DX2                !
 ! D77   D(28,29,32,33)         57.3005         estimate D2E/DX2                !
 ! D78   D(28,29,32,34)        -60.863          estimate D2E/DX2                !
 ! D79   D(28,29,32,35)        178.1209         estimate D2E/DX2                !
 ! D80   D(30,29,32,33)        -64.1044         estimate D2E/DX2                !
 ! D81   D(30,29,32,34)        177.7321         estimate D2E/DX2                !
 ! D82   D(30,29,32,35)         56.716          estimate D2E/DX2                !
 ! D83   D(31,29,32,33)        177.8838         estimate D2E/DX2                !
 ! D84   D(31,29,32,34)         59.7203         estimate D2E/DX2                !
 ! D85   D(31,29,32,35)        -61.2957         estimate D2E/DX2                !
 ! D86   D(29,32,35,36)       -179.8623         estimate D2E/DX2                !
 ! D87   D(33,32,35,36)        -60.1458         estimate D2E/DX2                !
 ! D88   D(34,32,35,36)         59.9854         estimate D2E/DX2                !
 ! D89   D(32,35,36,37)        179.8638         estimate D2E/DX2                !
 ! D90   D(32,35,36,38)        -60.8377         estimate D2E/DX2                !
 ! D91   D(32,35,36,39)         60.6548         estimate D2E/DX2                !
 ! D92   D(13,40,43,44)       -159.3166         estimate D2E/DX2                !
 ! D93   D(13,40,43,45)        -41.8804         estimate D2E/DX2                !
 ! D94   D(13,40,43,46)         77.1317         estimate D2E/DX2                !
 ! D95   D(41,40,43,44)        -42.8141         estimate D2E/DX2                !
 ! D96   D(41,40,43,45)         74.6221         estimate D2E/DX2                !
 ! D97   D(41,40,43,46)       -166.3658         estimate D2E/DX2                !
 ! D98   D(42,40,43,44)         76.2693         estimate D2E/DX2                !
 ! D99   D(42,40,43,45)       -166.2945         estimate D2E/DX2                !
 ! D100  D(42,40,43,46)        -47.2824         estimate D2E/DX2                !
 ! D101  D(40,43,46,47)         79.2275         estimate D2E/DX2                !
 ! D102  D(44,43,46,47)        -43.7064         estimate D2E/DX2                !
 ! D103  D(45,43,46,47)       -160.5271         estimate D2E/DX2                !
 ! D104  D(43,46,47,48)         36.7241         estimate D2E/DX2                !
 ! D105  D(43,46,47,49)        -83.7259         estimate D2E/DX2                !
 ! D106  D(43,46,47,50)        156.9225         estimate D2E/DX2                !
 ! D107  D(46,47,50,51)         48.3503         estimate D2E/DX2                !
 ! D108  D(46,47,50,52)        165.8908         estimate D2E/DX2                !
 ! D109  D(46,47,50,53)        -69.9862         estimate D2E/DX2                !
 ! D110  D(48,47,50,51)        168.4491         estimate D2E/DX2                !
 ! D111  D(48,47,50,52)        -74.0105         estimate D2E/DX2                !
 ! D112  D(48,47,50,53)         50.1125         estimate D2E/DX2                !
 ! D113  D(49,47,50,51)        -72.1408         estimate D2E/DX2                !
 ! D114  D(49,47,50,52)         45.3996         estimate D2E/DX2                !
 ! D115  D(49,47,50,53)        169.5226         estimate D2E/DX2                !
 ! D116  D(47,50,53,54)       -103.4185         estimate D2E/DX2                !
 ! D117  D(51,50,53,54)        137.1312         estimate D2E/DX2                !
 ! D118  D(52,50,53,54)         19.8545         estimate D2E/DX2                !
 ! D119  D(50,53,54,55)        -55.9199         estimate D2E/DX2                !
 ! D120  D(50,53,54,56)       -171.3769         estimate D2E/DX2                !
 ! D121  D(50,53,54,57)         66.978          estimate D2E/DX2                !
 ! D122  D(53,54,57,58)        170.4394         estimate D2E/DX2                !
 ! D123  D(53,54,57,59)        -72.7071         estimate D2E/DX2                !
 ! D124  D(53,54,57,60)         46.3433         estimate D2E/DX2                !
 ! D125  D(55,54,57,58)        -64.7878         estimate D2E/DX2                !
 ! D126  D(55,54,57,59)         52.0657         estimate D2E/DX2                !
 ! D127  D(55,54,57,60)        171.1161         estimate D2E/DX2                !
 ! D128  D(56,54,57,58)         51.7926         estimate D2E/DX2                !
 ! D129  D(56,54,57,59)        168.6462         estimate D2E/DX2                !
 ! D130  D(56,54,57,60)        -72.3035         estimate D2E/DX2                !
 ! D131  D(54,57,60,61)         59.482          estimate D2E/DX2                !
 ! D132  D(58,57,60,61)        -62.9634         estimate D2E/DX2                !
 ! D133  D(59,57,60,61)       -178.3921         estimate D2E/DX2                !
 ! D134  D(57,60,61,62)        170.3315         estimate D2E/DX2                !
 ! D135  D(57,60,61,63)         51.9282         estimate D2E/DX2                !
 ! D136  D(57,60,61,64)        -70.7323         estimate D2E/DX2                !
 --------------------------------------------------------------------------------
 Trust Radius=3.00D-01 FncErr=1.00D-07 GrdErr=1.00D-06 EigMax=2.50D+02 EigMin=1.00D-04
 Number of steps in this run=    331 maximum allowed number of steps=    396.
 GradGradGradGradGradGradGradGradGradGradGradGradGradGradGradGradGradGrad

 Leave Link  103 at Fri Mar 13 16:09:11 2020, MaxMem=  6710886400 cpu:               0.1 elap:               0.0
 (Enter /apps/gaussian/g16-a03/l202.exe)
 Stoichiometry    C22H34O8S2
 Framework group  C1[X(C22H34O8S2)]
 Deg. of freedom   192
 Full point group                 C1      NOp   1
 Largest Abelian subgroup         C1      NOp   1
 Largest concise Abelian subgroup C1      NOp   1
                         Standard orientation:                         
 ---------------------------------------------------------------------
 Center     Atomic      Atomic             Coordinates (Angstroms)
 Number     Number       Type             X           Y           Z
 ---------------------------------------------------------------------
      1          6           0       -0.346035   -0.346984   -0.033050
      2          6           0       -1.687034   -0.169984    0.249950
      3          6           0       -2.437035   -1.376983    0.336950
      4          6           0       -1.664036   -2.475984    0.110950
      5         16           0       -0.009036   -2.063985   -0.209050
      6          8           0       -2.202034    1.079017    0.486950
      7          1           0       -3.490035   -1.386982    0.577950
      8          6           0        0.679966    0.662015   -0.161050
      9          6           0        2.018966    0.484014   -0.455050
     10          6           0        2.769967    1.692013   -0.532050
     11          6           0        2.000968    2.788014   -0.287050
     12         16           0        0.346967    2.377015    0.036950
     13          8           0        2.523965   -0.762987   -0.709050
     14          1           0        3.820967    1.701013   -0.785050
     15          6           0       -3.200033    1.583018   -0.416050
     16          1           0       -2.923033    2.622017   -0.622050
     17          1           0       -3.164034    1.030017   -1.360050
     18          6           0       -4.596033    1.570019    0.196950
     19          1           0       -5.231033    2.274019   -0.364050
     20          1           0       -4.525033    1.923018    1.227950
     21          8           0       -5.222034    0.297019    0.255950
     22          6           0       -5.807034   -0.131981   -0.962050
     23          1           0       -6.406034    0.682020   -1.398050
     24          1           0       -5.043035   -0.410981   -1.703050
     25          6           0       -6.672035   -1.355980   -0.695050
     26          1           0       -6.063036   -2.124980   -0.215050
     27          1           0       -7.023036   -1.749980   -1.662050
     28          8           0       -7.763035   -1.135979    0.177950
     29          6           0       -8.832035   -0.388979   -0.374050
     30          1           0       -8.557034    0.660021   -0.543050
     31          1           0       -9.154035   -0.814978   -1.336050
     32          6           0       -9.978035   -0.442978    0.619950
     33          1           0       -9.639034   -0.050978    1.589950
     34          1           0      -10.292035   -1.485977    0.768950
     35          8           0      -11.035034    0.338023    0.094950
     36          6           0      -12.168034    0.369024    0.937950
     37          1           0      -12.917034    0.992024    0.449950
     38          1           0      -12.585035   -0.635976    1.092950
     39          1           0      -11.929034    0.802024    1.920950
     40          6           0        3.593965   -1.249987    0.121950
     41          1           0        3.344964   -2.291987    0.342950
     42          1           0        3.614965   -0.697987    1.065950
     43          6           0        4.944965   -1.216988   -0.584050
     44          1           0        5.622964   -1.916989   -0.074050
     45          1           0        4.806965   -1.560988   -1.612050
     46          8           0        5.554966    0.061011   -0.672050
     47          6           0        6.208966    0.496011    0.514950
     48          1           0        6.687965   -0.355989    1.009950
     49          1           0        5.489966    0.956011    1.209950
     50          6           0        7.254967    1.531010    0.130950
     51          1           0        6.793967    2.265010   -0.536050
     52          1           0        7.592967    2.061010    1.032950
     53          8           0        8.356966    0.971009   -0.573050
     54          6           0        9.549966    0.797009    0.166950
     55          1           0        9.880967    1.747008    0.616950
     56          1           0       10.299966    0.513008   -0.574050
     57          6           0        9.484965   -0.248991    1.287950
     58          1           0       10.511965   -0.403992    1.658950
     59          1           0        8.889966    0.121009    2.126950
     60          8           0        8.889965   -1.482991    0.931950
     61          6           0        9.533964   -2.165991   -0.130050
     62          1           0        9.086963   -3.159991   -0.179050
     63          1           0       10.611964   -2.273992    0.057950
     64          1           0        9.382964   -1.661991   -1.091050
     65          1           0       -1.960037   -3.513983    0.116950
     66          1           0        2.298968    3.826014   -0.284050
 ---------------------------------------------------------------------
 Rotational constants (GHZ):           0.4453928           0.0266633           0.0255522
 Leave Link  202 at Fri Mar 13 16:09:11 2020, MaxMem=  6710886400 cpu:               0.0 elap:               0.0
 (Enter /apps/gaussian/g16-a03/l301.exe)
 Standard basis: 6-311G(d,p) (5D, 7F)
 Ernie: Thresh=  0.10000D-02 Tol=  0.10000D-05 Strict=F.
 There are   828 symmetry adapted cartesian basis functions of A   symmetry.
 There are   796 symmetry adapted basis functions of A   symmetry.
   796 basis functions,  1324 primitive gaussians,   828 cartesian basis functions
   131 alpha electrons      131 beta electrons
       nuclear repulsion energy      3495.7559539805 Hartrees.
 IExCor= 4639 DFT=T Ex+Corr=wB97XD ExCW=0 ScaHFX=  1.000000
 ScaDFX=  1.000000  1.000000  1.000000  1.000000 ScalE2=  1.000000  1.000000
 IRadAn=      5 IRanWt=     -1 IRanGd=            0 ICorTp=0 IEmpDi=121
 HFx  wShort=  0.000000 wLong=  0.200000 cFull=  0.222036 cShort=  0.000000 cLong=  0.777964
 DFx  wShort=  0.000000 wLong=  0.200000 cFull=  0.000000 cShort=  0.000000 cLong=  1.000000
 NAtoms=   66 NActive=   66 NUniq=   66 SFac= 1.00D+00 NAtFMM=   60 NAOKFM=T Big=T
 Integral buffers will be    131072 words long.
 Raffenetti 2 integral format.
 Two-electron integral symmetry is turned on.
 R6Disp:  Grimme-D2 Dispersion energy=       -0.0484165038 Hartrees.
 Nuclear repulsion after empirical dispersion term =     3495.7075374767 Hartrees.
 Leave Link  301 at Fri Mar 13 16:09:11 2020, MaxMem=  6710886400 cpu:               0.5 elap:               0.1
 (Enter /apps/gaussian/g16-a03/l302.exe)
 NPDir=0 NMtPBC=     1 NCelOv=     1 NCel=       1 NClECP=     1 NCelD=      1
         NCelK=      1 NCelE2=     1 NClLst=     1 CellRange=     0.0.
 One-electron integrals computed using PRISM.
 One-electron integral symmetry used in STVInt
 NBasis=   796 RedAO= T EigKep=  3.05D-04  NBF=   796
 NBsUse=   796 1.00D-06 EigRej= -1.00D+00 NBFU=   796
 Precomputing XC quadrature grid using
 IXCGrd= 4 IRadAn=           5 IRanWt=          -1 IRanGd=           0 AccXCQ= 0.00D+00.
 Generated NRdTot=       0 NPtTot=           0 NUsed=           0 NTot=          32
 NSgBfM=   659   659   659   659   659 MxSgAt=    66 MxSgA2=    66.
 Leave Link  302 at Fri Mar 13 16:09:13 2020, MaxMem=  6710886400 cpu:              16.0 elap:               2.0
 (Enter /apps/gaussian/g16-a03/l303.exe)
 DipDrv:  MaxL=1.
 Leave Link  303 at Fri Mar 13 16:09:14 2020, MaxMem=  6710886400 cpu:               1.3 elap:               0.2
 (Enter /apps/gaussian/g16-a03/l401.exe)
 ExpMin= 7.71D-02 ExpMax= 9.34D+04 ExpMxC= 3.17D+03 IAcc=3 IRadAn=         5 AccDes= 0.00D+00
 Harris functional with IExCor= 4639 and IRadAn=       5 diagonalized for initial guess.
 HarFok:  IExCor= 4639 AccDes= 0.00D+00 IRadAn=         5 IDoV= 1 UseB2=F ITyADJ=14
 ICtDFT=  3500011 ScaDFX=  1.000000  1.000000  1.000000  1.000000
 FoFCou: FMM=F IPFlag=           0 FMFlag=      100000 FMFlg1=        2001
         NFxFlg=           0 DoJE=T BraDBF=F KetDBF=T FulRan=T
         wScrn=  0.000000 ICntrl=       500 IOpCl=  0 I1Cent=   200000004 NGrid=           0
         NMat0=    1 NMatS0=      1 NMatT0=    0 NMatD0=    1 NMtDS0=    0 NMtDT0=    0
 Petite list used in FoFCou.
 Harris En= -2181.38412799022    
 JPrj=0 DoOrth=F DoCkMO=F.
 Leave Link  401 at Fri Mar 13 16:09:24 2020, MaxMem=  6710886400 cpu:              77.5 elap:               9.7
 (Enter /apps/gaussian/g16-a03/l502.exe)
 Integral symmetry usage will be decided dynamically.
 Closed shell SCF:
 Using DIIS extrapolation, IDIIS=  1040.
 NGot=  6710886400 LenX=  6709500316 LenY=  6708813904
 Requested convergence on RMS density matrix=1.00D-08 within 128 cycles.
 Requested convergence on MAX density matrix=1.00D-06.
 Requested convergence on             energy=1.00D-06.
 No special actions if energy rises.
 Fock matrices will be formed incrementally for  20 cycles.
 Integral accuracy reduced to 1.0D-05 until final iterations.

 Cycle   1  Pass 0  IDiag  1:
 FoFJK:  IHMeth= 1 ICntrl=       0 DoSepK=T KAlg= 0 I1Cent=           0 FoldK=F
 IRaf=         1 NMat=       1 IRICut=       1 DoRegI=T DoRafI=F ISym2E= 0 IDoP0=0 IntGTp=1.
 FoFCou: FMM=T IPFlag=           0 FMFlag=      100000 FMFlg1=        2001
         NFxFlg=           0 DoJE=T BraDBF=F KetDBF=F FulRan=T
         wScrn=  0.000000 ICntrl=       500 IOpCl=  0 I1Cent=           0 NGrid=           0
         NMat0=    1 NMatS0=      1 NMatT0=    0 NMatD0=    1 NMtDS0=    0 NMtDT0=    0
 Symmetry not used in FoFCou.
 FMM levels:  10  Number of levels for PrismC:   9
 E= -2255.96954574351    
 DIIS: error= 8.56D-02 at cycle   1 NSaved=   1.
 NSaved= 1 IEnMin= 1 EnMin= -2255.96954574351     IErMin= 1 ErrMin= 8.56D-02
 ErrMax= 8.56D-02  0.00D+00 EMaxC= 1.00D-01 BMatC= 5.55D+00 BMatP= 5.55D+00
 IDIUse=3 WtCom= 1.44D-01 WtEn= 8.56D-01
 Coeff-Com:  0.100D+01
 Coeff-En:   0.100D+01
 Coeff:      0.100D+01
 Gap=     0.277 Goal=   None    Shift=    0.000
 GapD=    0.277 DampG=1.000 DampE=0.500 DampFc=0.5000 IDamp=-1.
 Damping current iteration by 5.00D-01
 RMSDP=1.77D-03 MaxDP=2.23D-01              OVMax= 1.83D-01

 Cycle   2  Pass 0  IDiag  1:
 RMSU=  8.71D-04    CP:  9.80D-01
 E= -2256.35452136110     Delta-E=       -0.384975617595 Rises=F Damp=T
 DIIS: error= 3.19D-02 at cycle   2 NSaved=   2.
 NSaved= 2 IEnMin= 2 EnMin= -2256.35452136110     IErMin= 2 ErrMin= 3.19D-02
 ErrMax= 3.19D-02  0.00D+00 EMaxC= 1.00D-01 BMatC= 9.58D-01 BMatP= 5.55D+00
 IDIUse=3 WtCom= 6.81D-01 WtEn= 3.19D-01
 Coeff-Com: -0.498D+00 0.150D+01
 Coeff-En:   0.000D+00 0.100D+01
 Coeff:     -0.339D+00 0.134D+01
 Gap=     0.307 Goal=   None    Shift=    0.000
 RMSDP=5.72D-04 MaxDP=3.16D-02 DE=-3.85D-01 OVMax= 1.35D-01

 Cycle   3  Pass 0  IDiag  1:
 RMSU=  5.57D-04    CP:  9.83D-01  8.52D-01
 E= -2256.64143899513     Delta-E=       -0.286917634029 Rises=F Damp=F
 DIIS: error= 1.09D-02 at cycle   3 NSaved=   3.
 NSaved= 3 IEnMin= 3 EnMin= -2256.64143899513     IErMin= 3 ErrMin= 1.09D-02
 ErrMax= 1.09D-02  0.00D+00 EMaxC= 1.00D-01 BMatC= 1.61D-01 BMatP= 9.58D-01
 IDIUse=3 WtCom= 8.91D-01 WtEn= 1.09D-01
 Coeff-Com: -0.261D+00 0.608D+00 0.653D+00
 Coeff-En:   0.000D+00 0.000D+00 0.100D+01
 Coeff:     -0.232D+00 0.541D+00 0.691D+00
 Gap=     0.297 Goal=   None    Shift=    0.000
 RMSDP=4.84D-04 MaxDP=2.79D-02 DE=-2.87D-01 OVMax= 6.05D-02

 Cycle   4  Pass 0  IDiag  1:
 RMSU=  2.17D-04    CP:  9.71D-01  1.28D+00  6.56D-01
 E= -2256.74986685846     Delta-E=       -0.108427863323 Rises=F Damp=F
 DIIS: error= 3.31D-03 at cycle   4 NSaved=   4.
 NSaved= 4 IEnMin= 4 EnMin= -2256.74986685846     IErMin= 4 ErrMin= 3.31D-03
 ErrMax= 3.31D-03  0.00D+00 EMaxC= 1.00D-01 BMatC= 1.43D-02 BMatP= 1.61D-01
 IDIUse=3 WtCom= 9.67D-01 WtEn= 3.31D-02
 Coeff-Com: -0.703D-01 0.154D+00 0.314D+00 0.601D+00
 Coeff-En:   0.000D+00 0.000D+00 0.000D+00 0.100D+01
 Coeff:     -0.680D-01 0.149D+00 0.304D+00 0.615D+00
 Gap=     0.284 Goal=   None    Shift=    0.000
 RMSDP=1.06D-04 MaxDP=8.50D-03 DE=-1.08D-01 OVMax= 1.09D-02

 Cycle   5  Pass 0  IDiag  1:
 RMSU=  4.87D-05    CP:  9.73D-01  1.24D+00  7.58D-01  7.22D-01
 E= -2256.75913078880     Delta-E=       -0.009263930347 Rises=F Damp=F
 DIIS: error= 7.77D-04 at cycle   5 NSaved=   5.
 NSaved= 5 IEnMin= 5 EnMin= -2256.75913078880     IErMin= 5 ErrMin= 7.77D-04
 ErrMax= 7.77D-04  0.00D+00 EMaxC= 1.00D-01 BMatC= 3.30D-04 BMatP= 1.43D-02
 IDIUse=3 WtCom= 9.92D-01 WtEn= 7.77D-03
 Coeff-Com: -0.122D-01 0.256D-01 0.903D-01 0.245D+00 0.651D+00
 Coeff-En:   0.000D+00 0.000D+00 0.000D+00 0.000D+00 0.100D+01
 Coeff:     -0.121D-01 0.254D-01 0.896D-01 0.243D+00 0.654D+00
 Gap=     0.286 Goal=   None    Shift=    0.000
 RMSDP=3.23D-05 MaxDP=3.03D-03 DE=-9.26D-03 OVMax= 5.58D-03

 Cycle   6  Pass 0  IDiag  1:
 RMSU=  2.13D-05    CP:  9.73D-01  1.23D+00  7.74D-01  8.12D-01  7.99D-01
 E= -2256.75945584163     Delta-E=       -0.000325052827 Rises=F Damp=F
 DIIS: error= 3.39D-04 at cycle   6 NSaved=   6.
 NSaved= 6 IEnMin= 6 EnMin= -2256.75945584163     IErMin= 6 ErrMin= 3.39D-04
 ErrMax= 3.39D-04  0.00D+00 EMaxC= 1.00D-01 BMatC= 3.45D-05 BMatP= 3.30D-04
 IDIUse=3 WtCom= 9.97D-01 WtEn= 3.39D-03
 Coeff-Com:  0.754D-02-0.167D-01-0.204D-01-0.252D-01 0.196D+00 0.858D+00
 Coeff-En:   0.000D+00 0.000D+00 0.000D+00 0.000D+00 0.000D+00 0.100D+01
 Coeff:      0.752D-02-0.166D-01-0.203D-01-0.251D-01 0.196D+00 0.859D+00
 Gap=     0.286 Goal=   None    Shift=    0.000
 RMSDP=1.52D-05 MaxDP=1.18D-03 DE=-3.25D-04 OVMax= 3.38D-03

 Cycle   7  Pass 0  IDiag  1:
 RMSU=  8.95D-06    CP:  9.72D-01  1.23D+00  7.85D-01  8.39D-01  9.87D-01
                    CP:  9.65D-01
 E= -2256.75951415648     Delta-E=       -0.000058314849 Rises=F Damp=F
 DIIS: error= 2.43D-04 at cycle   7 NSaved=   7.
 NSaved= 7 IEnMin= 7 EnMin= -2256.75951415648     IErMin= 7 ErrMin= 2.43D-04
 ErrMax= 2.43D-04  0.00D+00 EMaxC= 1.00D-01 BMatC= 8.96D-06 BMatP= 3.45D-05
 IDIUse=3 WtCom= 9.98D-01 WtEn= 2.43D-03
 Coeff-Com:  0.439D-02-0.951D-02-0.195D-01-0.443D-01-0.118D-01 0.407D+00
 Coeff-Com:  0.674D+00
 Coeff-En:   0.000D+00 0.000D+00 0.000D+00 0.000D+00 0.000D+00 0.000D+00
 Coeff-En:   0.100D+01
 Coeff:      0.438D-02-0.948D-02-0.195D-01-0.442D-01-0.118D-01 0.406D+00
 Coeff:      0.674D+00
 Gap=     0.286 Goal=   None    Shift=    0.000
 RMSDP=6.27D-06 MaxDP=5.36D-04 DE=-5.83D-05 OVMax= 1.75D-03

 Initial convergence to 1.0D-05 achieved.  Increase integral accuracy.
 Cycle   8  Pass 1  IDiag  1:
 E= -2256.75949119386     Delta-E=        0.000022962614 Rises=F Damp=F
 DIIS: error= 8.20D-05 at cycle   1 NSaved=   1.
 NSaved= 1 IEnMin= 1 EnMin= -2256.75949119386     IErMin= 1 ErrMin= 8.20D-05
 ErrMax= 8.20D-05  0.00D+00 EMaxC= 1.00D-01 BMatC= 4.27D-06 BMatP= 4.27D-06
 IDIUse=1 WtCom= 1.00D+00 WtEn= 0.00D+00
 Coeff-Com:  0.100D+01
 Coeff:      0.100D+01
 Gap=     0.286 Goal=   None    Shift=    0.000
 RMSDP=6.27D-06 MaxDP=5.36D-04 DE= 2.30D-05 OVMax= 7.97D-04

 Cycle   9  Pass 1  IDiag  1:
 RMSU=  2.85D-05    CP:  1.00D+00
 E= -2256.75949564898     Delta-E=       -0.000004455114 Rises=F Damp=F
 DIIS: error= 7.39D-05 at cycle   2 NSaved=   2.
 NSaved= 2 IEnMin= 2 EnMin= -2256.75949564898     IErMin= 2 ErrMin= 7.39D-05
 ErrMax= 7.39D-05  0.00D+00 EMaxC= 1.00D-01 BMatC= 1.23D-06 BMatP= 4.27D-06
 IDIUse=1 WtCom= 1.00D+00 WtEn= 0.00D+00
 Coeff-Com:  0.275D+00 0.725D+00
 Coeff:      0.275D+00 0.725D+00
 Gap=     0.286 Goal=   None    Shift=    0.000
 RMSDP=2.50D-06 MaxDP=1.79D-04 DE=-4.46D-06 OVMax= 5.78D-04

 Cycle  10  Pass 1  IDiag  1:
 RMSU=  2.25D-06    CP:  1.00D+00  1.04D+00
 E= -2256.75949650589     Delta-E=       -0.000000856913 Rises=F Damp=F
 DIIS: error= 3.38D-05 at cycle   3 NSaved=   3.
 NSaved= 3 IEnMin= 3 EnMin= -2256.75949650589     IErMin= 3 ErrMin= 3.38D-05
 ErrMax= 3.38D-05  0.00D+00 EMaxC= 1.00D-01 BMatC= 6.53D-07 BMatP= 1.23D-06
 IDIUse=1 WtCom= 1.00D+00 WtEn= 0.00D+00
 Coeff-Com: -0.367D-01 0.417D+00 0.620D+00
 Coeff:     -0.367D-01 0.417D+00 0.620D+00
 Gap=     0.286 Goal=   None    Shift=    0.000
 RMSDP=1.30D-06 MaxDP=9.28D-05 DE=-8.57D-07 OVMax= 3.05D-04

 Cycle  11  Pass 1  IDiag  1:
 RMSU=  8.74D-07    CP:  1.00D+00  1.06D+00  6.85D-01
 E= -2256.75949723492     Delta-E=       -0.000000729027 Rises=F Damp=F
 DIIS: error= 1.21D-05 at cycle   4 NSaved=   4.
 NSaved= 4 IEnMin= 4 EnMin= -2256.75949723492     IErMin= 4 ErrMin= 1.21D-05
 ErrMax= 1.21D-05  0.00D+00 EMaxC= 1.00D-01 BMatC= 2.10D-08 BMatP= 6.53D-07
 IDIUse=1 WtCom= 1.00D+00 WtEn= 0.00D+00
 Coeff-Com: -0.260D-01 0.924D-01 0.177D+00 0.756D+00
 Coeff:     -0.260D-01 0.924D-01 0.177D+00 0.756D+00
 Gap=     0.286 Goal=   None    Shift=    0.000
 RMSDP=3.73D-07 MaxDP=2.57D-05 DE=-7.29D-07 OVMax= 9.93D-05

 Cycle  12  Pass 1  IDiag  1:
 RMSU=  2.91D-07    CP:  1.00D+00  1.06D+00  7.48D-01  1.19D+00
 E= -2256.75949728896     Delta-E=       -0.000000054043 Rises=F Damp=F
 DIIS: error= 4.55D-06 at cycle   5 NSaved=   5.
 NSaved= 5 IEnMin= 5 EnMin= -2256.75949728896     IErMin= 5 ErrMin= 4.55D-06
 ErrMax= 4.55D-06  0.00D+00 EMaxC= 1.00D-01 BMatC= 5.35D-09 BMatP= 2.10D-08
 IDIUse=1 WtCom= 1.00D+00 WtEn= 0.00D+00
 Coeff-Com:  0.508D-02-0.111D+00-0.171D+00 0.202D+00 0.107D+01
 Coeff:      0.508D-02-0.111D+00-0.171D+00 0.202D+00 0.107D+01
 Gap=     0.286 Goal=   None    Shift=    0.000
 RMSDP=3.31D-07 MaxDP=2.45D-05 DE=-5.40D-08 OVMax= 1.18D-04

 Cycle  13  Pass 1  IDiag  1:
 RMSU=  1.11D-07    CP:  1.00D+00  1.06D+00  7.74D-01  1.53D+00  1.28D+00
 E= -2256.75949731241     Delta-E=       -0.000000023445 Rises=F Damp=F
 DIIS: error= 1.39D-06 at cycle   6 NSaved=   6.
 NSaved= 6 IEnMin= 6 EnMin= -2256.75949731241     IErMin= 6 ErrMin= 1.39D-06
 ErrMax= 1.39D-06  0.00D+00 EMaxC= 1.00D-01 BMatC= 9.08D-10 BMatP= 5.35D-09
 IDIUse=1 WtCom= 1.00D+00 WtEn= 0.00D+00
 Coeff-Com:  0.528D-02-0.605D-01-0.997D-01 0.285D-02 0.478D+00 0.674D+00
 Coeff:      0.528D-02-0.605D-01-0.997D-01 0.285D-02 0.478D+00 0.674D+00
 Gap=     0.286 Goal=   None    Shift=    0.000
 RMSDP=7.63D-08 MaxDP=5.72D-06 DE=-2.34D-08 OVMax= 2.18D-05

 Cycle  14  Pass 1  IDiag  1:
 RMSU=  3.74D-08    CP:  1.00D+00  1.06D+00  7.81D-01  1.59D+00  1.41D+00
                    CP:  1.09D+00
 E= -2256.75949731379     Delta-E=       -0.000000001381 Rises=F Damp=F
 DIIS: error= 2.03D-07 at cycle   7 NSaved=   7.
 NSaved= 7 IEnMin= 7 EnMin= -2256.75949731379     IErMin= 7 ErrMin= 2.03D-07
 ErrMax= 2.03D-07  0.00D+00 EMaxC= 1.00D-01 BMatC= 5.03D-11 BMatP= 9.08D-10
 IDIUse=1 WtCom= 1.00D+00 WtEn= 0.00D+00
 Coeff-Com:  0.144D-02-0.124D-01-0.219D-01-0.137D-01 0.810D-01 0.215D+00
 Coeff-Com:  0.750D+00
 Coeff:      0.144D-02-0.124D-01-0.219D-01-0.137D-01 0.810D-01 0.215D+00
 Coeff:      0.750D+00
 Gap=     0.286 Goal=   None    Shift=    0.000
 RMSDP=1.76D-08 MaxDP=1.32D-06 DE=-1.38D-09 OVMax= 4.59D-06

 Cycle  15  Pass 1  IDiag  1:
 RMSU=  1.02D-08    CP:  1.00D+00  1.06D+00  7.82D-01  1.60D+00  1.44D+00
                    CP:  1.16D+00  1.03D+00
 E= -2256.75949731388     Delta-E=       -0.000000000093 Rises=F Damp=F
 DIIS: error= 1.19D-07 at cycle   8 NSaved=   8.
 NSaved= 8 IEnMin= 8 EnMin= -2256.75949731388     IErMin= 8 ErrMin= 1.19D-07
 ErrMax= 1.19D-07  0.00D+00 EMaxC= 1.00D-01 BMatC= 1.05D-11 BMatP= 5.03D-11
 IDIUse=1 WtCom= 1.00D+00 WtEn= 0.00D+00
 Coeff-Com: -0.390D-03 0.642D-02 0.953D-02-0.574D-02-0.538D-01-0.380D-01
 Coeff-Com:  0.317D+00 0.765D+00
 Coeff:     -0.390D-03 0.642D-02 0.953D-02-0.574D-02-0.538D-01-0.380D-01
 Coeff:      0.317D+00 0.765D+00
 Gap=     0.286 Goal=   None    Shift=    0.000
 RMSDP=6.85D-09 MaxDP=3.44D-07 DE=-9.28D-11 OVMax= 1.48D-06

 SCF Done:  E(RwB97XD) =  -2256.75949731     A.U. after   15 cycles
            NFock= 15  Conv=0.68D-08     -V/T= 2.0030
 KE= 2.250031385318D+03 PE=-1.230082778517D+04 EE= 4.298329365059D+03
 Leave Link  502 at Fri Mar 13 16:14:14 2020, MaxMem=  6710886400 cpu:            2264.8 elap:             289.5
 (Enter /apps/gaussian/g16-a03/l601.exe)
 Copying SCF densities to generalized density rwf, IOpCl= 0 IROHF=0.

 **********************************************************************

            Population analysis using the SCF density.

 **********************************************************************

 Orbital symmetries:
       Occupied  (A) (A) (A) (A) (A) (A) (A) (A) (A) (A) (A) (A)
                 (A) (A) (A) (A) (A) (A) (A) (A) (A) (A) (A) (A)
                 (A) (A) (A) (A) (A) (A) (A) (A) (A) (A) (A) (A)
                 (A) (A) (A) (A) (A) (A) (A) (A) (A) (A) (A) (A)
                 (A) (A) (A) (A) (A) (A) (A) (A) (A) (A) (A) (A)
                 (A) (A) (A) (A) (A) (A) (A) (A) (A) (A) (A) (A)
                 (A) (A) (A) (A) (A) (A) (A) (A) (A) (A) (A) (A)
                 (A) (A) (A) (A) (A) (A) (A) (A) (A) (A) (A) (A)
                 (A) (A) (A) (A) (A) (A) (A) (A) (A) (A) (A) (A)
                 (A) (A) (A) (A) (A) (A) (A) (A) (A) (A) (A) (A)
                 (A) (A) (A) (A) (A) (A) (A) (A) (A) (A) (A)
       Virtual   (A) (A) (A) (A) (A) (A) (A) (A) (A) (A) (A) (A)
                 (A) (A) (A) (A) (A) (A) (A) (A) (A) (A) (A) (A)
                 (A) (A) (A) (A) (A) (A) (A) (A) (A) (A) (A) (A)
                 (A) (A) (A) (A) (A) (A) (A) (A) (A) (A) (A) (A)
                 (A) (A) (A) (A) (A) (A) (A) (A) (A) (A) (A) (A)
                 (A) (A) (A) (A) (A) (A) (A) (A) (A) (A) (A) (A)
                 (A) (A) (A) (A) (A) (A) (A) (A) (A) (A) (A) (A)
                 (A) (A) (A) (A) (A) (A) (A) (A) (A) (A) (A) (A)
                 (A) (A) (A) (A) (A) (A) (A) (A) (A) (A) (A) (A)
                 (A) (A) (A) (A) (A) (A) (A) (A) (A) (A) (A) (A)
                 (A) (A) (A) (A) (A) (A) (A) (A) (A) (A) (A) (A)
                 (A) (A) (A) (A) (A) (A) (A) (A) (A) (A) (A) (A)
                 (A) (A) (A) (A) (A) (A) (A) (A) (A) (A) (A) (A)
                 (A) (A) (A) (A) (A) (A) (A) (A) (A) (A) (A) (A)
                 (A) (A) (A) (A) (A) (A) (A) (A) (A) (A) (A) (A)
                 (A) (A) (A) (A) (A) (A) (A) (A) (A) (A) (A) (A)
                 (A) (A) (A) (A) (A) (A) (A) (A) (A) (A) (A) (A)
                 (A) (A) (A) (A) (A) (A) (A) (A) (A) (A) (A) (A)
                 (A) (A) (A) (A) (A) (A) (A) (A) (A) (A) (A) (A)
                 (A) (A) (A) (A) (A) (A) (A) (A) (A) (A) (A) (A)
                 (A) (A) (A) (A) (A) (A) (A) (A) (A) (A) (A) (A)
                 (A) (A) (A) (A) (A) (A) (A) (A) (A) (A) (A) (A)
                 (A) (A) (A) (A) (A) (A) (A) (A) (A) (A) (A) (A)
                 (A) (A) (A) (A) (A) (A) (A) (A) (A) (A) (A) (A)
                 (A) (A) (A) (A) (A) (A) (A) (A) (A) (A) (A) (A)
                 (A) (A) (A) (A) (A) (A) (A) (A) (A) (A) (A) (A)
                 (A) (A) (A) (A) (A) (A) (A) (A) (A) (A) (A) (A)
                 (A) (A) (A) (A) (A) (A) (A) (A) (A) (A) (A) (A)
                 (A) (A) (A) (A) (A) (A) (A) (A) (A) (A) (A) (A)
                 (A) (A) (A) (A) (A) (A) (A) (A) (A) (A) (A) (A)
                 (A) (A) (A) (A) (A) (A) (A) (A) (A) (A) (A) (A)
                 (A) (A) (A) (A) (A) (A) (A) (A) (A) (A) (A) (A)
                 (A) (A) (A) (A) (A) (A) (A) (A) (A) (A) (A) (A)
                 (A) (A) (A) (A) (A) (A) (A) (A) (A) (A) (A) (A)
                 (A) (A) (A) (A) (A) (A) (A) (A) (A) (A) (A) (A)
                 (A) (A) (A) (A) (A) (A) (A) (A) (A) (A) (A) (A)
                 (A) (A) (A) (A) (A) (A) (A) (A) (A) (A) (A) (A)
                 (A) (A) (A) (A) (A) (A) (A) (A) (A) (A) (A) (A)
                 (A) (A) (A) (A) (A) (A) (A) (A) (A) (A) (A) (A)
                 (A) (A) (A) (A) (A) (A) (A) (A) (A) (A) (A) (A)
                 (A) (A) (A) (A) (A) (A) (A) (A) (A) (A) (A) (A)
                 (A) (A) (A) (A) (A) (A) (A) (A) (A) (A) (A) (A)
                 (A) (A) (A) (A) (A) (A) (A) (A) (A) (A) (A) (A)
                 (A) (A) (A) (A) (A) (A) (A) (A) (A) (A) (A) (A)
                 (A) (A) (A) (A) (A) (A) (A) (A) (A) (A) (A) (A)
                 (A) (A) (A) (A) (A) (A) (A) (A) (A) (A) (A) (A)
                 (A) (A) (A) (A) (A) (A) (A) (A) (A) (A) (A) (A)
                 (A) (A) (A) (A) (A) (A) (A) (A) (A) (A) (A) (A)
                 (A) (A) (A) (A) (A) (A) (A) (A) (A) (A) (A) (A)
                 (A) (A) (A) (A) (A) (A) (A) (A) (A) (A) (A) (A)
                 (A) (A) (A) (A) (A) (A) (A) (A) (A) (A) (A) (A)
                 (A) (A) (A) (A) (A) (A) (A) (A) (A) (A) (A) (A)
                 (A) (A) (A) (A) (A) (A) (A) (A) (A) (A) (A) (A)
                 (A) (A) (A) (A) (A) (A) (A) (A) (A) (A) (A) (A)
                 (A) (A) (A) (A) (A) (A) (A) (A) (A) (A) (A) (A)
                 (A) (A) (A) (A) (A)
 The electronic state is 1-A.
 Alpha  occ. eigenvalues --  -89.03521 -89.03519 -19.26496 -19.26428 -19.25331
 Alpha  occ. eigenvalues --  -19.25154 -19.24693 -19.24659 -19.24599 -19.24527
 Alpha  occ. eigenvalues --  -10.34041 -10.33743 -10.33681 -10.33653 -10.33647
 Alpha  occ. eigenvalues --  -10.33646 -10.33579 -10.33567 -10.33457 -10.33270
 Alpha  occ. eigenvalues --  -10.32997 -10.32752 -10.32751 -10.32564 -10.32503
 Alpha  occ. eigenvalues --  -10.32334 -10.31733 -10.31650 -10.30575 -10.30558
 Alpha  occ. eigenvalues --  -10.27883 -10.27847  -8.07514  -8.07510  -6.02363
 Alpha  occ. eigenvalues --   -6.02358  -6.01976  -6.01970  -6.01602  -6.01598
 Alpha  occ. eigenvalues --   -1.15971  -1.15785  -1.14857  -1.14790  -1.13860
 Alpha  occ. eigenvalues --   -1.13668  -1.13046  -1.12601  -0.98369  -0.96525
 Alpha  occ. eigenvalues --   -0.88735  -0.88341  -0.86591  -0.86298  -0.85582
 Alpha  occ. eigenvalues --   -0.83781  -0.83344  -0.81154  -0.80419  -0.78942
 Alpha  occ. eigenvalues --   -0.78192  -0.77151  -0.73744  -0.73004  -0.71133
 Alpha  occ. eigenvalues --   -0.70671  -0.68799  -0.68256  -0.67949  -0.66969
 Alpha  occ. eigenvalues --   -0.63821  -0.63330  -0.61667  -0.60754  -0.60681
 Alpha  occ. eigenvalues --   -0.59743  -0.59595  -0.58555  -0.58061  -0.57745
 Alpha  occ. eigenvalues --   -0.57347  -0.56482  -0.56419  -0.55788  -0.55210
 Alpha  occ. eigenvalues --   -0.54836  -0.54617  -0.54483  -0.53917  -0.53239
 Alpha  occ. eigenvalues --   -0.53022  -0.52686  -0.52347  -0.52040  -0.51586
 Alpha  occ. eigenvalues --   -0.51346  -0.50017  -0.49585  -0.48889  -0.48462
 Alpha  occ. eigenvalues --   -0.47815  -0.47477  -0.47045  -0.45886  -0.45729
 Alpha  occ. eigenvalues --   -0.44843  -0.44716  -0.44561  -0.44110  -0.43381
 Alpha  occ. eigenvalues --   -0.43038  -0.42351  -0.41666  -0.41535  -0.41018
 Alpha  occ. eigenvalues --   -0.40657  -0.40492  -0.39768  -0.39519  -0.37696
 Alpha  occ. eigenvalues --   -0.37462  -0.35800  -0.35157  -0.34576  -0.34247
 Alpha  occ. eigenvalues --   -0.34097  -0.33977  -0.32898  -0.31157  -0.30916
 Alpha  occ. eigenvalues --   -0.25890
 Alpha virt. eigenvalues --    0.02722   0.08607   0.10214   0.10450   0.11057
 Alpha virt. eigenvalues --    0.11411   0.12654   0.12765   0.12901   0.13045
 Alpha virt. eigenvalues --    0.13550   0.13939   0.14163   0.14736   0.14981
 Alpha virt. eigenvalues --    0.15323   0.15524   0.15976   0.16697   0.16830
 Alpha virt. eigenvalues --    0.16903   0.17299   0.17515   0.17625   0.17697
 Alpha virt. eigenvalues --    0.18298   0.18558   0.18940   0.19039   0.19173
 Alpha virt. eigenvalues --    0.19385   0.19596   0.19718   0.20154   0.20410
 Alpha virt. eigenvalues --    0.20899   0.21047   0.21350   0.21677   0.22058
 Alpha virt. eigenvalues --    0.22371   0.22633   0.23114   0.23716   0.24124
 Alpha virt. eigenvalues --    0.24626   0.24758   0.25427   0.25690   0.26658
 Alpha virt. eigenvalues --    0.26957   0.27949   0.28290   0.28575   0.29231
 Alpha virt. eigenvalues --    0.29378   0.29601   0.30380   0.30678   0.31167
 Alpha virt. eigenvalues --    0.31219   0.31350   0.32363   0.32668   0.32958
 Alpha virt. eigenvalues --    0.33397   0.34260   0.34459   0.35174   0.35940
 Alpha virt. eigenvalues --    0.36553   0.37431   0.39073   0.39168   0.39340
 Alpha virt. eigenvalues --    0.39678   0.40698   0.41140   0.41662   0.42139
 Alpha virt. eigenvalues --    0.42765   0.43712   0.44299   0.44776   0.45102
 Alpha virt. eigenvalues --    0.46163   0.46550   0.46780   0.46955   0.47641
 Alpha virt. eigenvalues --    0.48138   0.48679   0.49162   0.49232   0.49662
 Alpha virt. eigenvalues --    0.49936   0.50466   0.51319   0.51495   0.51687
 Alpha virt. eigenvalues --    0.52151   0.52316   0.52602   0.53026   0.53152
 Alpha virt. eigenvalues --    0.53462   0.53755   0.53921   0.54294   0.54980
 Alpha virt. eigenvalues --    0.55291   0.55640   0.56092   0.57023   0.57463
 Alpha virt. eigenvalues --    0.57859   0.58200   0.58448   0.58951   0.59323
 Alpha virt. eigenvalues --    0.59512   0.59790   0.60621   0.60761   0.61198
 Alpha virt. eigenvalues --    0.61299   0.61870   0.62214   0.62574   0.62793
 Alpha virt. eigenvalues --    0.63116   0.63419   0.64002   0.64340   0.64487
 Alpha virt. eigenvalues --    0.64815   0.65153   0.65488   0.65721   0.65814
 Alpha virt. eigenvalues --    0.66180   0.66550   0.66706   0.66980   0.67051
 Alpha virt. eigenvalues --    0.67852   0.68143   0.68154   0.68500   0.68555
 Alpha virt. eigenvalues --    0.68864   0.69097   0.69366   0.69706   0.70142
 Alpha virt. eigenvalues --    0.70246   0.70711   0.70852   0.71505   0.72025
 Alpha virt. eigenvalues --    0.72428   0.72634   0.73532   0.74366   0.74571
 Alpha virt. eigenvalues --    0.74704   0.75150   0.75410   0.76026   0.76573
 Alpha virt. eigenvalues --    0.77926   0.78429   0.78993   0.79345   0.79794
 Alpha virt. eigenvalues --    0.80610   0.81829   0.82238   0.83388   0.83898
 Alpha virt. eigenvalues --    0.84302   0.84769   0.85708   0.86517   0.86908
 Alpha virt. eigenvalues --    0.87396   0.87673   0.88921   0.89292   0.90354
 Alpha virt. eigenvalues --    0.90964   0.91289   0.92691   0.92935   0.93871
 Alpha virt. eigenvalues --    0.94322   0.95465   0.96306   0.96396   0.97355
 Alpha virt. eigenvalues --    0.98282   0.98613   0.99067   0.99780   1.00460
 Alpha virt. eigenvalues --    1.00950   1.01954   1.02586   1.03930   1.04275
 Alpha virt. eigenvalues --    1.05529   1.06256   1.07572   1.07935   1.08208
 Alpha virt. eigenvalues --    1.08676   1.09475   1.09888   1.10639   1.11638
 Alpha virt. eigenvalues --    1.12569   1.13113   1.13208   1.14167   1.14909
 Alpha virt. eigenvalues --    1.15471   1.16277   1.16874   1.17058   1.17918
 Alpha virt. eigenvalues --    1.18495   1.19588   1.20127   1.20351   1.22302
 Alpha virt. eigenvalues --    1.22515   1.23106   1.24507   1.25042   1.25523
 Alpha virt. eigenvalues --    1.26415   1.27472   1.28007   1.29981   1.30873
 Alpha virt. eigenvalues --    1.31356   1.32991   1.33354   1.33438   1.33915
 Alpha virt. eigenvalues --    1.35046   1.35435   1.35738   1.37730   1.39344
 Alpha virt. eigenvalues --    1.39977   1.40923   1.41752   1.42594   1.43067
 Alpha virt. eigenvalues --    1.43363   1.43892   1.44425   1.44703   1.45324
 Alpha virt. eigenvalues --    1.46152   1.47780   1.48709   1.49384   1.50730
 Alpha virt. eigenvalues --    1.51249   1.52842   1.53261   1.53819   1.54283
 Alpha virt. eigenvalues --    1.54875   1.55585   1.55751   1.56111   1.56923
 Alpha virt. eigenvalues --    1.56946   1.58383   1.58655   1.59103   1.59183
 Alpha virt. eigenvalues --    1.59564   1.59641   1.60255   1.60664   1.60811
 Alpha virt. eigenvalues --    1.61216   1.61683   1.62362   1.62443   1.62831
 Alpha virt. eigenvalues --    1.63495   1.63603   1.63638   1.64402   1.64553
 Alpha virt. eigenvalues --    1.65185   1.65470   1.65939   1.66233   1.66619
 Alpha virt. eigenvalues --    1.66731   1.67369   1.67652   1.68021   1.68341
 Alpha virt. eigenvalues --    1.68490   1.68880   1.69025   1.69088   1.69413
 Alpha virt. eigenvalues --    1.69568   1.69687   1.70068   1.70642   1.70878
 Alpha virt. eigenvalues --    1.71702   1.72231   1.73083   1.73360   1.73817
 Alpha virt. eigenvalues --    1.74392   1.74830   1.75400   1.75900   1.76675
 Alpha virt. eigenvalues --    1.77015   1.78007   1.78145   1.78368   1.79014
 Alpha virt. eigenvalues --    1.79229   1.79917   1.80013   1.80127   1.80813
 Alpha virt. eigenvalues --    1.81266   1.82244   1.82607   1.83098   1.83367
 Alpha virt. eigenvalues --    1.83709   1.83914   1.84350   1.84633   1.85035
 Alpha virt. eigenvalues --    1.86610   1.87352   1.88606   1.89119   1.89223
 Alpha virt. eigenvalues --    1.89941   1.90808   1.91275   1.92014   1.92737
 Alpha virt. eigenvalues --    1.95302   1.96233   1.96837   1.97878   1.98727
 Alpha virt. eigenvalues --    1.99345   2.00109   2.00498   2.01035   2.01407
 Alpha virt. eigenvalues --    2.02692   2.03014   2.03515   2.04226   2.04469
 Alpha virt. eigenvalues --    2.07134   2.07783   2.08080   2.08551   2.08996
 Alpha virt. eigenvalues --    2.09801   2.10262   2.10453   2.11514   2.12009
 Alpha virt. eigenvalues --    2.12808   2.13515   2.14110   2.14445   2.15103
 Alpha virt. eigenvalues --    2.15358   2.16392   2.17063   2.17716   2.18287
 Alpha virt. eigenvalues --    2.18494   2.18943   2.19853   2.20297   2.20572
 Alpha virt. eigenvalues --    2.20757   2.21285   2.22305   2.22491   2.23716
 Alpha virt. eigenvalues --    2.25838   2.26320   2.27108   2.28098   2.28675
 Alpha virt. eigenvalues --    2.30114   2.30690   2.31047   2.32748   2.33462
 Alpha virt. eigenvalues --    2.34126   2.34669   2.35559   2.35779   2.36210
 Alpha virt. eigenvalues --    2.39236   2.39842   2.40366   2.43187   2.43665
 Alpha virt. eigenvalues --    2.43763   2.45490   2.45590   2.47029   2.48138
 Alpha virt. eigenvalues --    2.48849   2.49445   2.50048   2.50136   2.50364
 Alpha virt. eigenvalues --    2.51181   2.51453   2.51633   2.51942   2.52211
 Alpha virt. eigenvalues --    2.53721   2.54030   2.54278   2.54994   2.55586
 Alpha virt. eigenvalues --    2.56168   2.56323   2.56454   2.57425   2.58183
 Alpha virt. eigenvalues --    2.58530   2.58888   2.59367   2.60529   2.60756
 Alpha virt. eigenvalues --    2.61064   2.61235   2.62077   2.62598   2.63008
 Alpha virt. eigenvalues --    2.63346   2.65513   2.66515   2.66708   2.67119
 Alpha virt. eigenvalues --    2.67967   2.68603   2.70059   2.71370   2.72313
 Alpha virt. eigenvalues --    2.72787   2.73469   2.74160   2.74721   2.75466
 Alpha virt. eigenvalues --    2.75918   2.76068   2.76659   2.78195   2.78557
 Alpha virt. eigenvalues --    2.79551   2.80547   2.81063   2.81432   2.81688
 Alpha virt. eigenvalues --    2.82348   2.84015   2.84540   2.85362   2.86321
 Alpha virt. eigenvalues --    2.86591   2.88095   2.88379   2.89200   2.90755
 Alpha virt. eigenvalues --    2.91178   2.92232   2.94061   2.94421   2.96606
 Alpha virt. eigenvalues --    2.97185   2.97465   2.98393   3.01773   3.02232
 Alpha virt. eigenvalues --    3.02555   3.02980   3.03605   3.04512   3.05592
 Alpha virt. eigenvalues --    3.06512   3.06818   3.07395   3.08140   3.08547
 Alpha virt. eigenvalues --    3.08956   3.11429   3.15427   3.15985   3.16383
 Alpha virt. eigenvalues --    3.17901   3.18987   3.19604   3.21150   3.21202
 Alpha virt. eigenvalues --    3.23967   3.24266   3.24486   3.25903   3.27418
 Alpha virt. eigenvalues --    3.28698   3.29557   3.29814   3.30138   3.30414
 Alpha virt. eigenvalues --    3.31313   3.31858   3.32159   3.33874   3.34716
 Alpha virt. eigenvalues --    3.34927   3.35881   3.37441   3.38028   3.38268
 Alpha virt. eigenvalues --    3.38668   3.38998   3.39896   3.41404   3.41593
 Alpha virt. eigenvalues --    3.42460   3.42802   3.45396   3.49369   3.49573
 Alpha virt. eigenvalues --    3.54191   3.60722   3.62037   3.80580   3.82958
 Alpha virt. eigenvalues --    3.85061   3.85323   3.85665   3.85793   3.85926
 Alpha virt. eigenvalues --    3.86247   3.87564   3.87812   3.88110   3.89205
 Alpha virt. eigenvalues --    3.89272   3.91920   3.93208   3.95977   3.96949
 Alpha virt. eigenvalues --    4.02239   4.02446   4.05413   4.06060   4.07103
 Alpha virt. eigenvalues --    4.08687   4.09333   4.09441   4.11086   4.11434
 Alpha virt. eigenvalues --    4.11573   4.13436   4.14016   4.16742   4.18137
 Alpha virt. eigenvalues --    4.19170   4.22281   4.27748   4.29626   4.30928
 Alpha virt. eigenvalues --    4.32833   4.34457   4.35048   4.35658   4.36465
 Alpha virt. eigenvalues --    4.64469   5.06393   5.07388   5.08020   5.13766
 Alpha virt. eigenvalues --    5.16727   5.18156   5.19789   5.21285   5.32386
 Alpha virt. eigenvalues --    5.34737   5.36354   5.37168   5.37580   5.38827
 Alpha virt. eigenvalues --    5.39678   5.39756   5.76565   5.78154   5.79810
 Alpha virt. eigenvalues --    5.80296   5.84174   5.84789   5.87479   5.89978
 Alpha virt. eigenvalues --    7.91791   7.92386  17.34322  17.36461  17.55577
 Alpha virt. eigenvalues --   17.56639  17.62005  17.67393  23.54861  23.79614
 Alpha virt. eigenvalues --   23.90943  23.91050  23.91338  23.91952  23.92402
[...]
 Alpha  occ. eigenvalues --  -10.32018 -10.32000 -10.31972 -10.31085 -10.30899
 Alpha  occ. eigenvalues --  -10.28283 -10.28224  -8.08178  -8.08126  -6.03017
 Alpha  occ. eigenvalues --   -6.02967  -6.02629  -6.02582  -6.02271  -6.02215
 Alpha  occ. eigenvalues --   -1.16698  -1.16615  -1.15797  -1.14848  -1.14319
 Alpha  occ. eigenvalues --   -1.14044  -1.13403  -1.12980  -0.99426  -0.97627
 Alpha  occ. eigenvalues --   -0.88583  -0.88259  -0.86883  -0.86327  -0.86078
 Alpha  occ. eigenvalues --   -0.84197  -0.83318  -0.81695  -0.80733  -0.79426
 Alpha  occ. eigenvalues --   -0.78553  -0.77003  -0.74074  -0.72944  -0.70961
 Alpha  occ. eigenvalues --   -0.70697  -0.68784  -0.68050  -0.67576  -0.67532
 Alpha  occ. eigenvalues --   -0.64106  -0.63234  -0.62056  -0.61174  -0.60748
 Alpha  occ. eigenvalues --   -0.60347  -0.59382  -0.58737  -0.58174  -0.57831
 Alpha  occ. eigenvalues --   -0.57582  -0.56790  -0.56632  -0.56219  -0.55281
 Alpha  occ. eigenvalues --   -0.55154  -0.54783  -0.54485  -0.54095  -0.53774
 Alpha  occ. eigenvalues --   -0.53136  -0.52383  -0.52238  -0.52103  -0.51682
 Alpha  occ. eigenvalues --   -0.51669  -0.50203  -0.49571  -0.48851  -0.48582
 Alpha  occ. eigenvalues --   -0.48023  -0.47664  -0.47152  -0.46284  -0.45943
 Alpha  occ. eigenvalues --   -0.45650  -0.44591  -0.44256  -0.43702  -0.43635
 Alpha  occ. eigenvalues --   -0.43390  -0.42282  -0.42039  -0.41556  -0.41211
 Alpha  occ. eigenvalues --   -0.40756  -0.40258  -0.39608  -0.38637  -0.37644
 Alpha  occ. eigenvalues --   -0.37538  -0.36099  -0.35232  -0.34239  -0.34041
 Alpha  occ. eigenvalues --   -0.33945  -0.33402  -0.33157  -0.31743  -0.31156
 Alpha  occ. eigenvalues --   -0.27111
 Alpha virt. eigenvalues --    0.02416   0.08165   0.09894   0.09920   0.10961
 Alpha virt. eigenvalues --    0.11994   0.12573   0.12719   0.13000   0.13201
 Alpha virt. eigenvalues --    0.13390   0.13903   0.14223   0.14684   0.14975
 Alpha virt. eigenvalues --    0.15437   0.15847   0.15958   0.16567   0.16732
 Alpha virt. eigenvalues --    0.17236   0.17256   0.17683   0.17906   0.18149
 Alpha virt. eigenvalues --    0.18276   0.18551   0.19096   0.19318   0.19451
 Alpha virt. eigenvalues --    0.19656   0.19723   0.20386   0.20729   0.20938
 Alpha virt. eigenvalues --    0.21168   0.21474   0.21535   0.21672   0.22311
 Alpha virt. eigenvalues --    0.22628   0.23015   0.23186   0.23983   0.24542
 Alpha virt. eigenvalues --    0.24746   0.25038   0.25559   0.25851   0.26534
 Alpha virt. eigenvalues --    0.26768   0.27405   0.28580   0.28906   0.29709
 Alpha virt. eigenvalues --    0.29807   0.30247   0.30582   0.31020   0.31632
 Alpha virt. eigenvalues --    0.31884   0.32142   0.32320   0.32659   0.33378
 Alpha virt. eigenvalues --    0.33713   0.34536   0.35043   0.35411   0.35945
 Alpha virt. eigenvalues --    0.36756   0.38267   0.39350   0.39528   0.40076
 Alpha virt. eigenvalues --    0.40145   0.40807   0.41052   0.41811   0.42573
 Alpha virt. eigenvalues --    0.43115   0.43828   0.44479   0.44837   0.45469
 Alpha virt. eigenvalues --    0.46218   0.46773   0.47154   0.47822   0.47961
 Alpha virt. eigenvalues --    0.48838   0.49176   0.49504   0.49666   0.50360
 Alpha virt. eigenvalues --    0.50398   0.50661   0.51144   0.51294   0.52534
 Alpha virt. eigenvalues --    0.53280   0.53379   0.53570   0.54093   0.54419
 Alpha virt. eigenvalues --    0.54629   0.54891   0.55208   0.55488   0.55598
 Alpha virt. eigenvalues --    0.56069   0.56667   0.57010   0.57518   0.57669
 Alpha virt. eigenvalues --    0.57855   0.58447   0.59028   0.59241   0.59595
 Alpha virt. eigenvalues --    0.60215   0.60277   0.60653   0.60833   0.61041
 Alpha virt. eigenvalues --    0.61928   0.62184   0.62860   0.63267   0.63395
 Alpha virt. eigenvalues --    0.63676   0.64165   0.64517   0.64806   0.65128
 Alpha virt. eigenvalues --    0.65323   0.65633   0.65802   0.66374   0.66650
 Alpha virt. eigenvalues --    0.67025   0.67119   0.67354   0.67446   0.67839
 Alpha virt. eigenvalues --    0.68183   0.68459   0.68492   0.68545   0.68963
 Alpha virt. eigenvalues --    0.69247   0.69602   0.69870   0.70477   0.70524
 Alpha virt. eigenvalues --    0.70964   0.71451   0.71634   0.72007   0.72387
 Alpha virt. eigenvalues --    0.73317   0.73447   0.73827   0.74393   0.75004
 Alpha virt. eigenvalues --    0.75734   0.76308   0.76822   0.77306   0.77930
 Alpha virt. eigenvalues --    0.78581   0.79201   0.79396   0.80301   0.80802
 Alpha virt. eigenvalues --    0.81226   0.82354   0.83058   0.83337   0.83806
 Alpha virt. eigenvalues --    0.84976   0.85724   0.85939   0.86754   0.87770
 Alpha virt. eigenvalues --    0.88521   0.88734   0.89138   0.89226   0.90436
 Alpha virt. eigenvalues --    0.90676   0.91533   0.92514   0.92551   0.94002
 Alpha virt. eigenvalues --    0.95268   0.96055   0.97642   0.98154   0.98299
 Alpha virt. eigenvalues --    0.98838   0.99114   0.99931   1.01612   1.02118
 Alpha virt. eigenvalues --    1.02498   1.03513   1.04634   1.04937   1.05608
 Alpha virt. eigenvalues --    1.05699   1.06534   1.07570   1.08154   1.08211
 Alpha virt. eigenvalues --    1.08607   1.09471   1.10718   1.11244   1.12354
 Alpha virt. eigenvalues --    1.13295   1.14244   1.14960   1.15647   1.15751
 Alpha virt. eigenvalues --    1.16148   1.16345   1.17468   1.18000   1.19394
 Alpha virt. eigenvalues --    1.19536   1.20518   1.21029   1.21853   1.22406
 Alpha virt. eigenvalues --    1.23578   1.23993   1.25137   1.25872   1.26352
 Alpha virt. eigenvalues --    1.27038   1.27318   1.27518   1.29908   1.30455
 Alpha virt. eigenvalues --    1.31394   1.33293   1.33987   1.34631   1.34831
 Alpha virt. eigenvalues --    1.35374   1.36003   1.37420   1.38213   1.39692
 Alpha virt. eigenvalues --    1.40190   1.41245   1.41894   1.43037   1.43392
 Alpha virt. eigenvalues --    1.43716   1.44142   1.44226   1.44572   1.46078
 Alpha virt. eigenvalues --    1.48307   1.48998   1.49636   1.50750   1.51506
 Alpha virt. eigenvalues --    1.52282   1.53091   1.53816   1.54717   1.54820
 Alpha virt. eigenvalues --    1.55445   1.56105   1.56450   1.56720   1.57368
 Alpha virt. eigenvalues --    1.57545   1.58504   1.58909   1.59248   1.60277
 Alpha virt. eigenvalues --    1.60664   1.60913   1.61198   1.61474   1.62249
 Alpha virt. eigenvalues --    1.62311   1.62803   1.63034   1.63475   1.63760
 Alpha virt. eigenvalues --    1.64219   1.64427   1.64774   1.65194   1.65536
 Alpha virt. eigenvalues --    1.66122   1.66489   1.66828   1.67288   1.67991
 Alpha virt. eigenvalues --    1.68483   1.68701   1.68768   1.68844   1.69238
 Alpha virt. eigenvalues --    1.69285   1.70372   1.70493   1.70692   1.71289
 Alpha virt. eigenvalues --    1.71784   1.71953   1.72161   1.72447   1.72835
 Alpha virt. eigenvalues --    1.73278   1.73769   1.74631   1.74839   1.75331
 Alpha virt. eigenvalues --    1.75544   1.76358   1.76655   1.77392   1.77728
 Alpha virt. eigenvalues --    1.78326   1.78512   1.78639   1.79377   1.80251
 Alpha virt. eigenvalues --    1.80543   1.80936   1.81384   1.81518   1.82328
 Alpha virt. eigenvalues --    1.83040   1.83547   1.83738   1.83992   1.84173
 Alpha virt. eigenvalues --    1.84604   1.84856   1.85482   1.85857   1.87284
 Alpha virt. eigenvalues --    1.88307   1.88402   1.89372   1.89774   1.90280
 Alpha virt. eigenvalues --    1.90774   1.91316   1.93274   1.93951   1.94232
 Alpha virt. eigenvalues --    1.95682   1.96267   1.97928   1.99040   1.99452
 Alpha virt. eigenvalues --    2.00170   2.00359   2.01612   2.02469   2.02510
 Alpha virt. eigenvalues --    2.04173   2.04470   2.05068   2.05722   2.06699
 Alpha virt. eigenvalues --    2.07401   2.07919   2.08717   2.08953   2.09651
 Alpha virt. eigenvalues --    2.10040   2.10266   2.11266   2.12472   2.13010
 Alpha virt. eigenvalues --    2.14122   2.14339   2.15255   2.15361   2.16003
 Alpha virt. eigenvalues --    2.16493   2.17213   2.18048   2.18247   2.18772
 Alpha virt. eigenvalues --    2.19237   2.19711   2.20395   2.20909   2.21461
 Alpha virt. eigenvalues --    2.22578   2.23379   2.24169   2.25466   2.25548
 Alpha virt. eigenvalues --    2.26213   2.26974   2.27496   2.28218   2.30201
 Alpha virt. eigenvalues --    2.30829   2.31395   2.32059   2.33026   2.33679
 Alpha virt. eigenvalues --    2.34782   2.35460   2.35979   2.37284   2.37512
 Alpha virt. eigenvalues --    2.39807   2.40284   2.41511   2.43165   2.43464
 Alpha virt. eigenvalues --    2.44844   2.46035   2.47099   2.47804   2.48269
 Alpha virt. eigenvalues --    2.49152   2.49213   2.49456   2.50472   2.51189
 Alpha virt. eigenvalues --    2.51606   2.52016   2.52116   2.52600   2.53273
 Alpha virt. eigenvalues --    2.53476   2.55378   2.55751   2.56176   2.56369
 Alpha virt. eigenvalues --    2.56648   2.56935   2.57095   2.57405   2.59130
 Alpha virt. eigenvalues --    2.59516   2.59810   2.60152   2.60979   2.62003
 Alpha virt. eigenvalues --    2.63361   2.63632   2.63743   2.64403   2.64880
 Alpha virt. eigenvalues --    2.65683   2.66985   2.67628   2.67941   2.68222
 Alpha virt. eigenvalues --    2.70108   2.71269   2.71550   2.72072   2.72703
 Alpha virt. eigenvalues --    2.73600   2.74232   2.75603   2.76667   2.77265
 Alpha virt. eigenvalues --    2.78102   2.78910   2.79144   2.79708   2.80240
 Alpha virt. eigenvalues --    2.81130   2.82087   2.82521   2.83633   2.85459
 Alpha virt. eigenvalues --    2.86509   2.86941   2.87461   2.88995   2.90031
 Alpha virt. eigenvalues --    2.90527   2.90797   2.92463   2.93087   2.93858
 Alpha virt. eigenvalues --    2.95292   2.95761   2.96328   2.96702   2.97109
 Alpha virt. eigenvalues --    2.99707   3.00714   3.01798   3.02453   3.03074
 Alpha virt. eigenvalues --    3.04355   3.04948   3.05727   3.06692   3.06925
 Alpha virt. eigenvalues --    3.07860   3.08208   3.09759   3.10147   3.11407
 Alpha virt. eigenvalues --    3.12249   3.14664   3.17068   3.17910   3.18820
 Alpha virt. eigenvalues --    3.19677   3.19979   3.22182   3.22404   3.24892
 Alpha virt. eigenvalues --    3.27224   3.27384   3.27785   3.29049   3.29158
 Alpha virt. eigenvalues --    3.30819   3.31419   3.31793   3.32243   3.32560
 Alpha virt. eigenvalues --    3.33463   3.33551   3.35579   3.35637   3.35964
 Alpha virt. eigenvalues --    3.36601   3.38831   3.39792   3.40276   3.40477
 Alpha virt. eigenvalues --    3.40951   3.42288   3.42748   3.43819   3.44872
 Alpha virt. eigenvalues --    3.45184   3.45554   3.48406   3.50130   3.51989
 Alpha virt. eigenvalues --    3.54907   3.61279   3.63277   3.80930   3.82136
 Alpha virt. eigenvalues --    3.85934   3.86053   3.86431   3.87384   3.88049
 Alpha virt. eigenvalues --    3.88125   3.89329   3.89841   3.90309   3.90546
 Alpha virt. eigenvalues --    3.91889   3.92027   3.92274   3.94882   3.95811
 Alpha virt. eigenvalues --    4.02970   4.05880   4.07210   4.07514   4.08411
 Alpha virt. eigenvalues --    4.10068   4.10621   4.10860   4.12088   4.12520
 Alpha virt. eigenvalues --    4.13937   4.14312   4.14511   4.16921   4.17781
 Alpha virt. eigenvalues --    4.19647   4.21557   4.27985   4.30626   4.33234
 Alpha virt. eigenvalues --    4.35265   4.36200   4.37586   4.38055   4.39476
 Alpha virt. eigenvalues --    4.61781   5.07055   5.09083   5.09788   5.12887
 Alpha virt. eigenvalues --    5.16203   5.19426   5.20378   5.23622   5.34337
 Alpha virt. eigenvalues --    5.36443   5.36917   5.38847   5.40211   5.40263
 Alpha virt. eigenvalues --    5.41673   5.42459   5.78344   5.80489   5.82855
 Alpha virt. eigenvalues --    5.84600   5.85989   5.86120   5.87276   5.89352
 Alpha virt. eigenvalues --    7.95246   7.96342  17.35259  17.37961  17.56375
 Alpha virt. eigenvalues --   17.57619  17.62116  17.65476  23.56106  23.79897
 Alpha virt. eigenvalues --   23.91379  23.91891  23.92952  23.93143  23.94294
 Alpha virt. eigenvalues --   23.94472  23.94972  23.95030  23.96196  23.96282
 Alpha virt. eigenvalues --   23.97081  23.98173  23.98339  23.98714  24.00460
 Alpha virt. eigenvalues --   24.01218  24.20154  24.21468  24.32285  24.32731
 Alpha virt. eigenvalues --   50.02846  50.03304  50.04505  50.04807  50.06395
 Alpha virt. eigenvalues --   50.07661  50.09418  50.10335 189.15340 189.16797
          Condensed to atoms (all electrons):
 Mulliken charges:
               1
     1  C   -0.203120
     2  C    0.165747
     3  C   -0.044174
     4  C   -0.325544
     5  S    0.304661
     6  O   -0.368533
     7  H    0.124884
     8  C   -0.250896
     9  C    0.186963
    10  C   -0.096343
    11  C   -0.305545
    12  S    0.301977
    13  O   -0.368554
    14  H    0.149711
    15  C   -0.114639
    16  H    0.137036
    17  H    0.142131
    18  C   -0.024743
    19  H    0.105013
    20  H    0.131206
    21  O   -0.351222
    22  C   -0.085337
    23  H    0.107025
    24  H    0.137343
    25  C   -0.026147
    26  H    0.130556
    27  H    0.105121
    28  O   -0.361083
    29  C   -0.031932
    30  H    0.114165
    31  H    0.098198
    32  C   -0.032325
    33  H    0.107606
    34  H    0.100968
    35  O   -0.364047
    36  C   -0.126123
    37  H    0.122406
    38  H    0.094687
    39  H    0.095298
    40  C   -0.089507
    41  H    0.135628
    42  H    0.126680
    43  C   -0.042330
    44  H    0.131943
    45  H    0.130092
    46  O   -0.361616
    47  C   -0.044759
    48  H    0.118252
    49  H    0.112899
    50  C   -0.052270
    51  H    0.128681
    52  H    0.098501
    53  O   -0.343053
    54  C   -0.080572
    55  H    0.115508
    56  H    0.134502
    57  C   -0.079789
    58  H    0.116993
    59  H    0.123651
    60  O   -0.358067
    61  C   -0.156330
    62  H    0.123823
    63  H    0.097682
    64  H    0.138494
    65  H    0.147025
    66  H    0.145542
 Sum of Mulliken charges =  -0.00000
 Mulliken charges with hydrogens summed into heavy atoms:
               1
     1  C   -0.203120
     2  C    0.165747
     3  C    0.080710
     4  C   -0.178519
     5  S    0.304661
     6  O   -0.368533
     8  C   -0.250896
     9  C    0.186963
    10  C    0.053368
    11  C   -0.160002
    12  S    0.301977
    13  O   -0.368554
    15  C    0.164528
    18  C    0.211476
    21  O   -0.351222
    22  C    0.159031
    25  C    0.209530
    28  O   -0.361083
    29  C    0.180431
    32  C    0.176250
    35  O   -0.364047
    36  C    0.186268
    40  C    0.172802
    43  C    0.219706
    46  O   -0.361616
    47  C    0.186392
    50  C    0.174912
    53  O   -0.343053
    54  C    0.169438
    57  C    0.160854
    60  O   -0.358067
    61  C    0.203669
 Electronic spatial extent (au):  <R**2>=          29424.9412
 Charge=             -0.0000 electrons
 Dipole moment (field-independent basis, Debye):
    X=              3.1592    Y=             -0.6220    Z=             -0.1065  Tot=              3.2217
 Quadrupole moment (field-independent basis, Debye-Ang):
   XX=           -164.0540   YY=           -198.6475   ZZ=           -208.5790
   XY=              1.5428   XZ=              8.0934   YZ=             -8.7228
 Traceless Quadrupole moment (field-independent basis, Debye-Ang):
   XX=             26.3728   YY=             -8.2206   ZZ=            -18.1522
   XY=              1.5428   XZ=              8.0934   YZ=             -8.7228
 Octapole moment (field-independent basis, Debye-Ang**2):
  XXX=            159.6186  YYY=            -43.6118  ZZZ=              9.7504  XYY=             17.9570
  XXY=            -52.6816  XXZ=             16.0967  XZZ=            -20.4127  YZZ=             -0.8246
  YYZ=            -36.0220  XYZ=             10.9572
 Hexadecapole moment (field-independent basis, Debye-Ang**3):
 XXXX=         -26672.4350 YYYY=          -3836.2496 ZZZZ=          -1947.8190 XXXY=            254.1569
 XXXZ=            440.9310 YYYX=           -118.0526 YYYZ=            -66.3023 ZZZX=            -51.4705
 ZZZY=            -49.1479 XXYY=          -5556.8448 XXZZ=          -5951.0058 YYZZ=           -973.0260
 XXYZ=             67.7262 YYXZ=            -53.5514 ZZXY=              7.3967
 N-N= 3.716689402551D+03 E-N=-1.274291578155D+04  KE= 2.250607277659D+03
 No NMR shielding tensors so no spin-rotation constants.
 Leave Link  601 at Fri Mar 13 21:07:32 2020, MaxMem=  6710886400 cpu:               4.8 elap:               0.7
 (Enter /apps/gaussian/g16-a03/l9999.exe)
 1\1\GINC-CX1-141-15-2\FOpt\RwB97XD\6-311G(d,p)\C22H34O8S2\NS5018\13-Ma
 r-2020\0\\#p opt wb97xd/6-311g(d,p)\\monomer_wb97xd.pdb\\0,1\C,-0.6313
 505054,-0.5225076653,-1.7569651261\C,-1.8046233406,-0.9288015935,-2.34
 56123428\C,-2.5099853611,0.1114694941,-3.0109906647\C,-1.8735617223,1.
 3044278662,-2.9072675984\S,-0.4189211896,1.1883636275,-1.9910076571\O,
 -2.2516703987,-2.2198272893,-2.3221172523\H,-3.4594859364,-0.046937524
 ,-3.499720173\C,0.365266107,-1.3396837248,-1.0868014218\C,1.3635596529
 ,-0.9287143002,-0.2362557461\C,2.1965327532,-1.9847642953,0.2316460267
 \C,1.8285548373,-3.18503816,-0.2834833331\S,0.4677550815,-3.0603704815
 ,-1.3313777825\O,1.4898143846,0.3732051507,0.1447207547\H,3.010233764,
 -1.8153421755,0.9224254187\C,-2.8497222191,-2.6377267032,-1.0956921648
 \H,-2.7610220791,-3.7261487968,-1.070803921\H,-2.2825331718,-2.2382434
 448,-0.2481309781\C,-4.3218604649,-2.2675265284,-1.0061966441\H,-4.723
 5610509,-2.7005453515,-0.0743223825\H,-4.8566639639,-2.7112173624,-1.8
 48211439\O,-4.5917888117,-0.8903435807,-1.0688602999\C,-4.0982068848,-
 0.1360213484,0.011940511\H,-4.3925268911,-0.6024210902,0.9650703005\H,
 -3.0003980502,-0.0734102904,-0.0018057529\C,-4.6329262913,1.2799653595
 ,-0.0988801687\H,-4.2589578393,1.7248129969,-1.0223971348\H,-4.2371794
 626,1.8586947102,0.751597164\O,-6.0325513028,1.3845381749,-0.162139999
 \C,-6.7120482129,0.8546233639,0.9467522867\H,-6.6719391418,-0.24236814
 84,0.9598655005\H,-6.2837549506,1.2241776613,1.8910463774\C,-8.1575228
 053,1.2905230171,0.8385901423\H,-8.5668864571,0.9532112286,-0.12516596
 49\H,-8.2174036787,2.3888595347,0.8637937924\O,-8.8592480296,0.7212729
 38,1.9142652548\C,-10.220289522,1.0590698842,1.9084929612\H,-10.681577
 1754,0.5760969213,2.7701695037\H,-10.3667681098,2.1462429728,1.9879881
 104\H,-10.7190391304,0.7084105422,0.9931546192\C,2.6219652494,1.088249
 9363,-0.3520212398\H,2.2654864366,2.0989190458,-0.5713537832\H,2.95979
 0131,0.6411879398,-1.2936522922\C,3.7544000634,1.1935015912,0.65485681
 09\H,4.4583443892,1.963537698,0.3065564142\H,3.3430767834,1.5052102451
 ,1.6171708677\O,4.4539185883,-0.0046591371,0.8980032168\C,5.2459963758
 ,-0.4404889097,-0.1831209946\H,5.6450354184,0.4241429256,-0.7224451743
 \H,4.6523854085,-1.0444036833,-0.8874328015\C,6.3638627873,-1.31332927
 81,0.3592778148\H,5.9175658469,-2.1624104382,0.8841027768\H,6.95274855
 53,-1.7081559287,-0.4826794295\O,7.1912601348,-0.6700038677,1.29925271
 38\C,8.3328818114,-0.0187939402,0.8073542606\H,8.963382241,-0.70690169
 87,0.2211680022\H,8.9000092828,0.2602581312,1.6982520027\C,8.068990304
 9,1.2219945867,-0.0545927452\H,9.0183939357,1.7777955063,-0.129855517\
 H,7.7810869693,0.9345065816,-1.0690289663\O,7.0372312781,2.0574620319,
 0.4043745275\C,7.1525430935,2.4484074008,1.7538447695\H,6.383235654,3.
 2008829701,1.9290184998\H,8.1354344788,2.8967504883,1.9589032136\H,6.9
 839900227,1.603023771,2.4285410704\H,-2.1892404172,2.2631975013,-3.289
 5503571\H,2.2664827473,-4.1528870586,-0.0922564369\\Version=ES64L-G16R
 evA.03\State=1-A\HF=-2256.7666737\RMSD=5.478e-09\RMSF=1.562e-06\Dipole
 =1.2387452,0.1889492,0.190668\Quadrupole=19.883005,-2.3467508,-17.5362
 542,1.9992923,-4.8345863,0.0495794\PG=C01 [X(C22H34O8S2)]\\@


 THE WHOLE OF SCIENCE IS NOTHING MORE THAN A REFINEMENT OF EVERYDAY THINKING.
                                                              -- A. EINSTEIN
 Job cpu time:       1 days 14 hours  5 minutes 49.3 seconds.
 Elapsed time:       0 days  4 hours 50 minutes 24.1 seconds.
 File lengths (MBytes):  RWF=    392 Int=      0 D2E=      0 Chk=     48 Scr=      1
 Normal termination of Gaussian 16 at Fri Mar 13 21:07:33 2020.
