 Entering Gaussian System, Link 0=g16
 Input=b3lyp_no_methyl.gjf
 Output=b3lyp_no_methyl.log
 Initial command:
 /apps/gaussian/g16-a03/l1.exe "/tmp/pbs.1042531[1].pbs/Gau-8608.inp" -scrdir="/tmp/pbs.1042531[1].pbs/"
 Entering Link 1 = /apps/gaussian/g16-a03/l1.exe PID=      8609.
  
 Copyright (c) 1988,1990,1992,1993,1995,1998,2003,2009,2016,
            Gaussian, Inc.  All Rights Reserved.
  
 This is part of the Gaussian(R) 16 program.  It is based on
 the Gaussian(R) 09 system (copyright 2009, Gaussian, Inc.),
 the Gaussian(R) 03 system (copyright 2003, Gaussian, Inc.),
 the Gaussian(R) 98 system (copyright 1998, Gaussian, Inc.),
 the Gaussian(R) 94 system (copyright 1995, Gaussian, Inc.),
 the Gaussian 92(TM) system (copyright 1992, Gaussian, Inc.),
 the Gaussian 90(TM) system (copyright 1990, Gaussian, Inc.),
 the Gaussian 88(TM) system (copyright 1988, Gaussian, Inc.),
 the Gaussian 86(TM) system (copyright 1986, Carnegie Mellon
 University), and the Gaussian 82(TM) system (copyright 1983,
 Carnegie Mellon University). Gaussian is a federally registered
 trademark of Gaussian, Inc.
  
 This software contains proprietary and confidential information,
 including trade secrets, belonging to Gaussian, Inc.
  
 This software is provided under written license and may be
 used, copied, transmitted, or stored only in accord with that
 written license.
  
 The following legend is applicable only to US Government
 contracts under FAR:
  
                    RESTRICTED RIGHTS LEGEND
  
 Use, reproduction and disclosure by the US Government is
 subject to restrictions as set forth in subparagraphs (a)
 and (c) of the Commercial Computer Software - Restricted
 Rights clause in FAR 52.227-19.
  
 Gaussian, Inc.
 340 Quinnipiac St., Bldg. 40, Wallingford CT 06492
  
  
 ---------------------------------------------------------------
 Warning -- This program may not be used in any manner that
 competes with the business of Gaussian, Inc. or will provide
 assistance to any competitor of Gaussian, Inc.  The licensee
 of this program is prohibited from giving any competitor of
 Gaussian, Inc. access to this program.  By using this program,
 the user acknowledges that Gaussian, Inc. is engaged in the
 business of creating and licensing software in the field of
 computational chemistry and represents and warrants to the
 licensee that it is not a competitor of Gaussian, Inc. and that
 it will not use this program in any manner prohibited above.
 ---------------------------------------------------------------
  

 Cite this work as:
 Gaussian 16, Revision A.03,
 M. J. Frisch, G. W. Trucks, H. B. Schlegel, G. E. Scuseria, 
 M. A. Robb, J. R. Cheeseman, G. Scalmani, V. Barone, 
 G. A. Petersson, H. Nakatsuji, X. Li, M. Caricato, A. V. Marenich, 
 J. Bloino, B. G. Janesko, R. Gomperts, B. Mennucci, H. P. Hratchian, 
 J. V. Ortiz, A. F. Izmaylov, J. L. Sonnenberg, D. Williams-Young, 
 F. Ding, F. Lipparini, F. Egidi, J. Goings, B. Peng, A. Petrone, 
 T. Henderson, D. Ranasinghe, V. G. Zakrzewski, J. Gao, N. Rega, 
 G. Zheng, W. Liang, M. Hada, M. Ehara, K. Toyota, R. Fukuda, 
 J. Hasegawa, M. Ishida, T. Nakajima, Y. Honda, O. Kitao, H. Nakai, 
 T. Vreven, K. Throssell, J. A. Montgomery, Jr., J. E. Peralta, 
 F. Ogliaro, M. J. Bearpark, J. J. Heyd, E. N. Brothers, K. N. Kudin, 
 V. N. Staroverov, T. A. Keith, R. Kobayashi, J. Normand, 
 K. Raghavachari, A. P. Rendell, J. C. Burant, S. S. Iyengar, 
 J. Tomasi, M. Cossi, J. M. Millam, M. Klene, C. Adamo, R. Cammi, 
 J. W. Ochterski, R. L. Martin, K. Morokuma, O. Farkas, 
 J. B. Foresman, and D. J. Fox, Gaussian, Inc., Wallingford CT, 2016.
 
 ******************************************
 Gaussian 16:  ES64L-G16RevA.03 25-Dec-2016
                 6-Feb-2020 
 ******************************************
 %mem=10GB
 %nprocshared=8
 Will use up to    8 processors via shared memory.
 %chk=temp.chk
 -------------------------------------------------------
 # opt=modredundant b3lyp/6-311+g(d,p) geom=connectivity
 -------------------------------------------------------
 1/18=120,19=15,26=3,38=1,57=2/1,3;
 2/9=110,12=2,17=6,18=5,40=1/2;
 3/5=4,6=6,7=111,11=2,25=1,30=1,71=1,74=-5/1,2,3;
 4//1;
 5/5=2,38=5/2;
 6/7=2,8=2,9=2,10=2,28=1/1;
 7//1,2,3,16;
 1/18=20,19=15,26=3/3(2);
 2/9=110/2;
 99//99;
 2/9=110/2;
 3/5=4,6=6,7=111,11=2,25=1,30=1,71=1,74=-5/1,2,3;
 4/5=5,16=3,69=1/1;
 5/5=2,38=5/2;
 7//1,2,3,16;
 1/18=20,19=15,26=3/3(-5);
 2/9=110/2;
 6/7=2,8=2,9=2,10=2,19=2,28=1/1;
 99/9=1/99;
 -------------------
 Title Card Required
 -------------------
 Symbolic Z-matrix:
 Charge =  0 Multiplicity = 1
 C                    -0.59366  -0.41063  -0.00009 
 C                    -1.91734   0.00391  -0.00003 
 C                    -2.86398  -1.05921  -0.00001 
 C                    -2.25936  -2.2846   -0.0001 
 S                    -0.53724  -2.16837  -0.00024 
 H                    -3.93604  -0.92509   0.00005 
 H                    -2.73094  -3.25516  -0.00012 
 C                     0.59366   0.41063  -0.00009 
 C                     1.91734  -0.00391  -0.00002 
 S                     0.53724   2.16837  -0.00025 
 C                     2.86398   1.05921  -0.00001 
 C                     2.25936   2.2846   -0.0001 
 H                     3.93604   0.92509   0.00006 
 H                     2.73094   3.25516  -0.00012 
 O                    -2.20249   1.33737   0.00001 
 O                     2.20249  -1.33737   0.00002 
 H                    -3.12567   1.6007    0.00036 
 H                     3.12567  -1.6007    0.00036 
 
 The following ModRedundant input section has been read:
 A       1       2      15 S  25 0.2500                                        
 

 GradGradGradGradGradGradGradGradGradGradGradGradGradGradGradGradGradGrad
 Berny optimization.
 Initialization pass.
                           ----------------------------
                           !    Initial Parameters    !
                           ! (Angstroms and Degrees)  !
 --------------------------                            --------------------------
 ! Name  Definition              Value          Derivative Info.                !
 --------------------------------------------------------------------------------
 ! R1    R(1,2)                  1.3871         estimate D2E/DX2                !
 ! R2    R(1,5)                  1.7586         estimate D2E/DX2                !
 ! R3    R(1,8)                  1.4437         estimate D2E/DX2                !
 ! R4    R(2,3)                  1.4235         estimate D2E/DX2                !
 ! R5    R(2,15)                 1.3636         estimate D2E/DX2                !
 ! R6    R(3,4)                  1.3664         estimate D2E/DX2                !
 ! R7    R(3,6)                  1.0804         estimate D2E/DX2                !
 ! R8    R(4,5)                  1.726          estimate D2E/DX2                !
 ! R9    R(4,7)                  1.0791         estimate D2E/DX2                !
 ! R10   R(8,9)                  1.3871         estimate D2E/DX2                !
 ! R11   R(8,10)                 1.7586         estimate D2E/DX2                !
 ! R12   R(9,11)                 1.4235         estimate D2E/DX2                !
 ! R13   R(9,16)                 1.3636         estimate D2E/DX2                !
 ! R14   R(10,12)                1.726          estimate D2E/DX2                !
 ! R15   R(11,12)                1.3664         estimate D2E/DX2                !
 ! R16   R(11,13)                1.0804         estimate D2E/DX2                !
 ! R17   R(12,14)                1.0791         estimate D2E/DX2                !
 ! R18   R(15,17)                0.96           estimate D2E/DX2                !
 ! R19   R(16,18)                0.96           estimate D2E/DX2                !
 ! A1    A(2,1,5)              109.228          estimate D2E/DX2                !
 ! A2    A(2,1,8)              127.9393         estimate D2E/DX2                !
 ! A3    A(5,1,8)              122.8328         estimate D2E/DX2                !
 ! A4    A(1,2,3)              114.2937         estimate D2E/DX2                !
 ! A5    A(1,2,15)             119.46           Scan                            !
 ! A6    A(3,2,15)             126.2463         estimate D2E/DX2                !
 ! A7    A(2,3,4)              112.0548         estimate D2E/DX2                !
 ! A8    A(2,3,6)              124.5521         estimate D2E/DX2                !
 ! A9    A(4,3,6)              123.3931         estimate D2E/DX2                !
 ! A10   A(3,4,5)              112.4009         estimate D2E/DX2                !
 ! A11   A(3,4,7)              127.8234         estimate D2E/DX2                !
 ! A12   A(5,4,7)              119.7757         estimate D2E/DX2                !
 ! A13   A(1,5,4)               92.0227         estimate D2E/DX2                !
 ! A14   A(1,8,9)              127.9393         estimate D2E/DX2                !
 ! A15   A(1,8,10)             122.8328         estimate D2E/DX2                !
 ! A16   A(9,8,10)             109.228          estimate D2E/DX2                !
 ! A17   A(8,9,11)             114.2937         estimate D2E/DX2                !
 ! A18   A(8,9,16)             119.46           estimate D2E/DX2                !
 ! A19   A(11,9,16)            126.2463         estimate D2E/DX2                !
 ! A20   A(8,10,12)             92.0227         estimate D2E/DX2                !
 ! A21   A(9,11,12)            112.0548         estimate D2E/DX2                !
 ! A22   A(9,11,13)            124.5521         estimate D2E/DX2                !
 ! A23   A(12,11,13)           123.3931         estimate D2E/DX2                !
 ! A24   A(10,12,11)           112.4009         estimate D2E/DX2                !
 ! A25   A(10,12,14)           119.7757         estimate D2E/DX2                !
 ! A26   A(11,12,14)           127.8234         estimate D2E/DX2                !
 ! A27   A(2,15,17)            117.9908         estimate D2E/DX2                !
 ! A28   A(9,16,18)            117.9908         estimate D2E/DX2                !
 ! D1    D(5,1,2,3)              0.0042         estimate D2E/DX2                !
 ! D2    D(5,1,2,15)          -179.9959         estimate D2E/DX2                !
 ! D3    D(8,1,2,3)           -179.9984         estimate D2E/DX2                !
 ! D4    D(8,1,2,15)             0.0015         estimate D2E/DX2                !
 ! D5    D(2,1,5,4)             -0.0042         estimate D2E/DX2                !
 ! D6    D(8,1,5,4)            179.9983         estimate D2E/DX2                !
 ! D7    D(2,1,8,9)            179.9937         estimate D2E/DX2                !
 ! D8    D(2,1,8,10)            -0.0091         estimate D2E/DX2                !
 ! D9    D(5,1,8,9)             -0.0093         estimate D2E/DX2                !
 ! D10   D(5,1,8,10)           179.9879         estimate D2E/DX2                !
 ! D11   D(1,2,3,4)             -0.0018         estimate D2E/DX2                !
 ! D12   D(1,2,3,6)            179.9988         estimate D2E/DX2                !
 ! D13   D(15,2,3,4)           179.9983         estimate D2E/DX2                !
 ! D14   D(15,2,3,6)            -0.0011         estimate D2E/DX2                !
 ! D15   D(1,2,15,17)         -179.9784         estimate D2E/DX2                !
 ! D16   D(3,2,15,17)            0.0215         estimate D2E/DX2                !
 ! D17   D(2,3,4,5)             -0.0015         estimate D2E/DX2                !
 ! D18   D(2,3,4,7)           -179.9988         estimate D2E/DX2                !
 ! D19   D(6,3,4,5)            179.9978         estimate D2E/DX2                !
 ! D20   D(6,3,4,7)              0.0006         estimate D2E/DX2                !
 ! D21   D(3,4,5,1)              0.0033         estimate D2E/DX2                !
 ! D22   D(7,4,5,1)           -179.9992         estimate D2E/DX2                !
 ! D23   D(1,8,9,11)          -179.9983         estimate D2E/DX2                !
 ! D24   D(1,8,9,16)             0.0014         estimate D2E/DX2                !
 ! D25   D(10,8,9,11)            0.0041         estimate D2E/DX2                !
 ! D26   D(10,8,9,16)         -179.9961         estimate D2E/DX2                !
 ! D27   D(1,8,10,12)          179.9982         estimate D2E/DX2                !
 ! D28   D(9,8,10,12)           -0.0042         estimate D2E/DX2                !
 ! D29   D(8,9,11,12)           -0.0018         estimate D2E/DX2                !
 ! D30   D(8,9,11,13)          179.9988         estimate D2E/DX2                !
 ! D31   D(16,9,11,12)         179.9985         estimate D2E/DX2                !
 ! D32   D(16,9,11,13)          -0.001          estimate D2E/DX2                !
 ! D33   D(8,9,16,18)         -179.9802         estimate D2E/DX2                !
 ! D34   D(11,9,16,18)           0.0196         estimate D2E/DX2                !
 ! D35   D(8,10,12,11)           0.0033         estimate D2E/DX2                !
 ! D36   D(8,10,12,14)        -179.9992         estimate D2E/DX2                !
 ! D37   D(9,11,12,10)          -0.0015         estimate D2E/DX2                !
 ! D38   D(9,11,12,14)        -179.9988         estimate D2E/DX2                !
 ! D39   D(13,11,12,10)        179.9979         estimate D2E/DX2                !
 ! D40   D(13,11,12,14)          0.0007         estimate D2E/DX2                !
 --------------------------------------------------------------------------------
 Trust Radius=3.00D-01 FncErr=1.00D-07 GrdErr=1.00D-06 EigMax=2.50D+02 EigMin=1.00D-04
 Number of optimizations in scan=  26
 Number of steps in this run=     97 maximum allowed number of steps=    108.
 GradGradGradGradGradGradGradGradGradGradGradGradGradGradGradGradGradGrad

                          Input orientation:                          
 ---------------------------------------------------------------------
 Center     Atomic      Atomic             Coordinates (Angstroms)
 Number     Number       Type             X           Y           Z
 ---------------------------------------------------------------------
      1          6           0       -0.593663   -0.410632   -0.000087
      2          6           0       -1.917339    0.003914   -0.000030
      3          6           0       -2.863983   -1.059207   -0.000012
      4          6           0       -2.259364   -2.284600   -0.000096
      5         16           0       -0.537240   -2.168368   -0.000240
      6          1           0       -3.936038   -0.925086    0.000049
      7          1           0       -2.730943   -3.255156   -0.000122
      8          6           0        0.593663    0.410632   -0.000087
      9          6           0        1.917339   -0.003914   -0.000023
     10         16           0        0.537240    2.168368   -0.000245
     11          6           0        2.863983    1.059207   -0.000005
     12          6           0        2.259364    2.284600   -0.000095
     13          1           0        3.936038    0.925086    0.000062
     14          1           0        2.730943    3.255156   -0.000122
     15          8           0       -2.202491    1.337369    0.000005
     16          8           0        2.202491   -1.337369    0.000021
     17          1           0       -3.125670    1.600696    0.000364
     18          1           0        3.125670   -1.600696    0.000359
 ---------------------------------------------------------------------
                    Distance matrix (angstroms):
                    1          2          3          4          5
     1  C    0.000000
     2  C    1.387071   0.000000
     3  C    2.361144   1.423503   0.000000
     4  C    2.507253   2.313931   1.366438   0.000000
     5  S    1.758641   2.573613   2.577590   1.726042   0.000000
     6  H    3.381735   2.222203   1.080412   2.158591   3.619058
     7  H    3.557989   3.359090   2.199975   1.079058   2.448151
     8  C    1.443682   2.543728   3.757092   3.924798   2.816058
     9  C    2.543728   3.834686   4.896395   4.758821   3.272586
    10  S    2.816058   3.272586   4.688876   5.258319   4.467862
    11  C    3.757092   4.896395   6.107149   6.117984   4.688876
    12  C    3.924798   4.758821   6.117984   6.426235   5.258319
    13  H    4.722535   5.925418   7.083622   6.977470   5.438720
    14  H    4.948839   5.672486   7.065191   7.456008   6.332111
    15  O    2.375676   1.363603   2.486192   3.622415   3.881141
    16  O    2.945729   4.332671   5.074104   4.561293   2.862985
    17  H    3.233651   2.002442   2.672745   3.980705   4.572287
    18  H    3.905085   5.292137   6.014079   5.428288   3.706637
                    6          7          8          9         10
     6  H    0.000000
     7  H    2.623258   0.000000
     8  C    4.722535   4.948839   0.000000
     9  C    5.925418   5.672486   1.387071   0.000000
    10  S    5.438720   6.332111   1.758641   2.573613   0.000000
    11  C    7.083622   7.065191   2.361144   1.423503   2.577590
    12  C    6.977470   7.456008   2.507253   2.313931   1.726042
    13  H    8.086576   7.869121   3.381735   2.222203   3.619058
    14  H    7.869121   8.498021   3.557989   3.359090   2.448151
    15  O    2.850243   4.622829   2.945729   4.332671   2.862985
    16  O    6.152359   5.293078   2.375676   1.363603   3.881141
    17  H    2.652597   4.871869   3.905085   5.292137   3.706637
    18  H    7.093953   6.085816   3.233651   2.002442   4.572287
                   11         12         13         14         15
    11  C    0.000000
    12  C    1.366438   0.000000
    13  H    1.080412   2.158591   0.000000
    14  H    2.199975   1.079058   2.623258   0.000000
    15  O    5.074104   4.561293   6.152359   5.293078   0.000000
    16  O    2.486192   3.622415   2.850243   4.622829   5.153454
    17  H    6.014079   5.428288   7.093953   6.085816   0.960000
    18  H    2.672745   3.980705   2.652597   4.871869   6.084531
                   16         17         18
    16  O    0.000000
    17  H    6.084531   0.000000
    18  H    0.960000   7.023400   0.000000
 Stoichiometry    C8H6O2S2
 Framework group  C1[X(C8H6O2S2)]
 Deg. of freedom    48
 Full point group                 C1      NOp   1
 Largest Abelian subgroup         C1      NOp   1
 Largest concise Abelian subgroup C1      NOp   1
                         Standard orientation:                         
 ---------------------------------------------------------------------
 Center     Atomic      Atomic             Coordinates (Angstroms)
 Number     Number       Type             X           Y           Z
 ---------------------------------------------------------------------
      1          6           0        0.721800   -0.007662    0.000007
      2          6           0        1.562949   -1.110583    0.000064
      3          6           0        2.949758   -0.789458    0.000082
      4          6           0        3.163925    0.560092   -0.000002
      5         16           0        1.690946    1.459845   -0.000146
      6          1           0        3.747461   -1.518128    0.000143
      7          1           0        4.109455    1.080033   -0.000028
      8          6           0       -0.721800    0.007662    0.000007
      9          6           0       -1.562949    1.110583    0.000071
     10         16           0       -1.690946   -1.459845   -0.000151
     11          6           0       -2.949758    0.789458    0.000089
     12          6           0       -3.163925   -0.560092   -0.000001
     13          1           0       -3.747461    1.518128    0.000156
     14          1           0       -4.109455   -1.080033   -0.000028
     15          8           0        1.025574   -2.363836    0.000099
     16          8           0       -1.025574    2.363836    0.000115
     17          1           0        1.627118   -3.111997    0.000457
     18          1           0       -1.627118    3.111997    0.000453
 ---------------------------------------------------------------------
 Rotational constants (GHZ):           1.2851131           0.6279971           0.4218509
 Standard basis: 6-311+G(d,p) (5D, 7F)
 There are   328 symmetry adapted cartesian basis functions of A   symmetry.
 There are   316 symmetry adapted basis functions of A   symmetry.
   316 basis functions,   508 primitive gaussians,   328 cartesian basis functions
    51 alpha electrons       51 beta electrons
       nuclear repulsion energy       870.8463659266 Hartrees.
 NAtoms=   18 NActive=   18 NUniq=   18 SFac= 1.00D+00 NAtFMM=   60 NAOKFM=F Big=F
 Integral buffers will be    131072 words long.
 Raffenetti 2 integral format.
 Two-electron integral symmetry is turned on.
 One-electron integrals computed using PRISM.
 NBasis=   316 RedAO= T EigKep=  1.77D-06  NBF=   316
 NBsUse=   315 1.00D-06 EigRej=  6.87D-07 NBFU=   315
 ExpMin= 4.05D-02 ExpMax= 9.34D+04 ExpMxC= 3.17D+03 IAcc=3 IRadAn=         5 AccDes= 0.00D+00
 Harris functional with IExCor=  402 and IRadAn=       5 diagonalized for initial guess.
 HarFok:  IExCor=  402 AccDes= 0.00D+00 IRadAn=         5 IDoV= 1 UseB2=F ITyADJ=14
 ICtDFT=  3500011 ScaDFX=  1.000000  1.000000  1.000000  1.000000
 FoFCou: FMM=F IPFlag=           0 FMFlag=      100000 FMFlg1=           0
         NFxFlg=           0 DoJE=T BraDBF=F KetDBF=T FulRan=T
         wScrn=  0.000000 ICntrl=       500 IOpCl=  0 I1Cent=   200000004 NGrid=           0
         NMat0=    1 NMatS0=      1 NMatT0=    0 NMatD0=    1 NMtDS0=    0 NMtDT0=    0
 Petite list used in FoFCou.
 Requested convergence on RMS density matrix=1.00D-08 within 128 cycles.
 Requested convergence on MAX density matrix=1.00D-06.
 Requested convergence on             energy=1.00D-06.
 No special actions if energy rises.
 SCF Done:  E(RB3LYP) =  -1255.42923307     A.U. after   14 cycles
            NFock= 14  Conv=0.57D-08     -V/T= 2.0023

 **********************************************************************

            Population analysis using the SCF density.

 **********************************************************************

 Orbital symmetries:
       Occupied  (A) (A) (A) (A) (A) (A) (A) (A) (A) (A) (A) (A)
                 (A) (A) (A) (A) (A) (A) (A) (A) (A) (A) (A) (A)
                 (A) (A) (A) (A) (A) (A) (A) (A) (A) (A) (A) (A)
                 (A) (A) (A) (A) (A) (A) (A) (A) (A) (A) (A) (A)
                 (A) (A) (A)
       Virtual   (A) (A) (A) (A) (A) (A) (A) (A) (A) (A) (A) (A)
                 (A) (A) (A) (A) (A) (A) (A) (A) (A) (A) (A) (A)
                 (A) (A) (A) (A) (A) (A) (A) (A) (A) (A) (A) (A)
                 (A) (A) (A) (A) (A) (A) (A) (A) (A) (A) (A) (A)
                 (A) (A) (A) (A) (A) (A) (A) (A) (A) (A) (A) (A)
                 (A) (A) (A) (A) (A) (A) (A) (A) (A) (A) (A) (A)
                 (A) (A) (A) (A) (A) (A) (A) (A) (A) (A) (A) (A)
                 (A) (A) (A) (A) (A) (A) (A) (A) (A) (A) (A) (A)
                 (A) (A) (A) (A) (A) (A) (A) (A) (A) (A) (A) (A)
                 (A) (A) (A) (A) (A) (A) (A) (A) (A) (A) (A) (A)
                 (A) (A) (A) (A) (A) (A) (A) (A) (A) (A) (A) (A)
                 (A) (A) (A) (A) (A) (A) (A) (A) (A) (A) (A) (A)
                 (A) (A) (A) (A) (A) (A) (A) (A) (A) (A) (A) (A)
                 (A) (A) (A) (A) (A) (A) (A) (A) (A) (A) (A) (A)
                 (A) (A) (A) (A) (A) (A) (A) (A) (A) (A) (A) (A)
                 (A) (A) (A) (A) (A) (A) (A) (A) (A) (A) (A) (A)
                 (A) (A) (A) (A) (A) (A) (A) (A) (A) (A) (A) (A)
                 (A) (A) (A) (A) (A) (A) (A) (A) (A) (A) (A) (A)
                 (A) (A) (A) (A) (A) (A) (A) (A) (A) (A) (A) (A)
                 (A) (A) (A) (A) (A) (A) (A) (A) (A) (A) (A) (A)
                 (A) (A) (A) (A) (A) (A) (A) (A) (A) (A) (A) (A)
                 (A) (A) (A) (A) (A) (A) (A) (A) (A) (A) (A) (A)
 The electronic state is 1-A.
 Alpha  occ. eigenvalues --  -88.87253 -88.87253 -19.16119 -19.16119 -10.23859
 Alpha  occ. eigenvalues --  -10.23858 -10.20642 -10.20605 -10.19838 -10.19838
 Alpha  occ. eigenvalues --  -10.18028 -10.18028  -7.95814  -7.95814  -5.92127
 Alpha  occ. eigenvalues --   -5.92127  -5.91737  -5.91736  -5.91378  -5.91377
 Alpha  occ. eigenvalues --   -1.07098  -1.07016  -0.88906  -0.87194  -0.77012
 Alpha  occ. eigenvalues --   -0.73715  -0.72932  -0.70729  -0.61145  -0.61016
 Alpha  occ. eigenvalues --   -0.59297  -0.56139  -0.53505  -0.48863  -0.47436
 Alpha  occ. eigenvalues --   -0.46513  -0.43429  -0.43323  -0.42658  -0.41344
 Alpha  occ. eigenvalues --   -0.38092  -0.37462  -0.37322  -0.35160  -0.34941
 Alpha  occ. eigenvalues --   -0.34144  -0.33004  -0.27835  -0.24035  -0.23834
 Alpha  occ. eigenvalues --   -0.18898
 Alpha virt. eigenvalues --   -0.04013  -0.01496  -0.00665   0.00307   0.00953
 Alpha virt. eigenvalues --    0.00972   0.03026   0.03088   0.03964   0.04181
 Alpha virt. eigenvalues --    0.04711   0.05638   0.05955   0.06166   0.06430
 Alpha virt. eigenvalues --    0.06999   0.07467   0.08399   0.09166   0.10000
 Alpha virt. eigenvalues --    0.10172   0.10325   0.11517   0.11553   0.13130
 Alpha virt. eigenvalues --    0.13259   0.14205   0.14380   0.14410   0.15023
 Alpha virt. eigenvalues --    0.15446   0.15600   0.15715   0.16881   0.17403
 Alpha virt. eigenvalues --    0.17911   0.18416   0.18666   0.18943   0.19023
 Alpha virt. eigenvalues --    0.19620   0.19880   0.20032   0.20409   0.21626
 Alpha virt. eigenvalues --    0.21752   0.22351   0.24053   0.25036   0.25533
 Alpha virt. eigenvalues --    0.25987   0.26145   0.26844   0.27198   0.27620
 Alpha virt. eigenvalues --    0.28505   0.28715   0.29316   0.30573   0.30858
 Alpha virt. eigenvalues --    0.34094   0.34239   0.34822   0.35271   0.35809
 Alpha virt. eigenvalues --    0.37063   0.37080   0.37963   0.40799   0.42491
 Alpha virt. eigenvalues --    0.44191   0.46075   0.46544   0.47301   0.49401
 Alpha virt. eigenvalues --    0.49922   0.50515   0.52168   0.55023   0.55193
 Alpha virt. eigenvalues --    0.57084   0.57086   0.57501   0.57881   0.58204
 Alpha virt. eigenvalues --    0.60115   0.61205   0.61915   0.62494   0.63806
 Alpha virt. eigenvalues --    0.63976   0.66130   0.68672   0.70061   0.71540
 Alpha virt. eigenvalues --    0.73022   0.74421   0.75031   0.75389   0.76088
 Alpha virt. eigenvalues --    0.76326   0.77930   0.77933   0.78444   0.80822
 Alpha virt. eigenvalues --    0.82198   0.82342   0.84164   0.85541   0.86731
 Alpha virt. eigenvalues --    0.87413   0.88273   0.88516   0.90256   0.93094
 Alpha virt. eigenvalues --    0.96248   0.97790   0.98999   1.00576   1.01272
 Alpha virt. eigenvalues --    1.03252   1.03523   1.04958   1.05225   1.06633
 Alpha virt. eigenvalues --    1.07054   1.07428   1.08024   1.09779   1.13310
 Alpha virt. eigenvalues --    1.15878   1.17160   1.18703   1.23662   1.24466
 Alpha virt. eigenvalues --    1.24796   1.30203   1.33110   1.35380   1.36232
 Alpha virt. eigenvalues --    1.39939   1.41288   1.43818   1.45668   1.48449
 Alpha virt. eigenvalues --    1.53301   1.54512   1.55222   1.56189   1.58247
 Alpha virt. eigenvalues --    1.59710   1.61769   1.63155   1.64396   1.65943
 Alpha virt. eigenvalues --    1.66495   1.69416   1.75017   1.75547   1.76662
 Alpha virt. eigenvalues --    1.77308   1.78051   1.79879   1.80488   1.80553
 Alpha virt. eigenvalues --    1.87249   1.87273   1.87723   1.90006   1.92326
 Alpha virt. eigenvalues --    1.96375   1.97956   1.98339   2.01807   2.02893
 Alpha virt. eigenvalues --    2.03634   2.06606   2.06860   2.07729   2.09531
 Alpha virt. eigenvalues --    2.10530   2.11237   2.15812   2.16380   2.16472
 Alpha virt. eigenvalues --    2.17687   2.18527   2.22684   2.38846   2.40209
 Alpha virt. eigenvalues --    2.44625   2.50765   2.53657   2.57595   2.59535
 Alpha virt. eigenvalues --    2.61536   2.63822   2.64894   2.66779   2.67316
 Alpha virt. eigenvalues --    2.71721   2.72512   2.73423   2.74838   2.75758
 Alpha virt. eigenvalues --    2.78237   2.83587   2.91164   2.95302   2.98821
 Alpha virt. eigenvalues --    2.98873   2.98912   3.04459   3.04707   3.13169
 Alpha virt. eigenvalues --    3.13687   3.20053   3.20294   3.20787   3.21851
 Alpha virt. eigenvalues --    3.29182   3.31428   3.34092   3.34901   3.39270
 Alpha virt. eigenvalues --    3.44485   3.44810   3.50571   3.55917   3.74039
 Alpha virt. eigenvalues --    3.92841   3.94332   3.98542   4.07460   4.08472
 Alpha virt. eigenvalues --    4.18247   4.28413   4.57500   4.99255   5.00134
 Alpha virt. eigenvalues --    5.42110   5.42570   5.77023   5.80372   7.99612
 Alpha virt. eigenvalues --    8.01148  17.28972  17.29978  17.47707  17.50116
 Alpha virt. eigenvalues --   17.53896  17.58500  23.49450  23.69881  23.81471
 Alpha virt. eigenvalues --   23.84714  24.03449  24.03730  24.15487  24.16014
 Alpha virt. eigenvalues --   49.94026  49.95430 189.15887 189.18101
          Condensed to atoms (all electrons):
               1          2          3          4          5          6
     1  C    9.008901  -3.657577   0.841090  -0.665973   0.751119   0.033684
     2  C   -3.657577  16.428996  -6.025674   1.640163  -2.024646  -0.140740
     3  C    0.841090  -6.025674  12.045597  -0.889694   0.291405   0.419485
     4  C   -0.665973   1.640163  -0.889694   6.062998  -0.103780   0.014249
     5  S    0.751119  -2.024646   0.291405  -0.103780  17.022544   0.016747
     6  H    0.033684  -0.140740   0.419485   0.014249   0.016747   0.542869
     7  H    0.045630  -0.084460   0.083127   0.327782  -0.017503  -0.005205
     8  C    0.012388  -1.055166   0.070408  -0.164780   0.635618   0.003539
     9  C   -1.055166   1.081944  -0.180109  -0.107645  -0.443060   0.001738
    10  S    0.635618  -0.443060  -0.054168   0.055132   0.154085  -0.000298
    11  C    0.070408  -0.180109  -0.049959   0.005192  -0.054168   0.000032
    12  C   -0.164780  -0.107645   0.005191  -0.025932   0.055132   0.000087
    13  H    0.003539   0.001738   0.000032   0.000087  -0.000298   0.000000
    14  H    0.000249   0.004192   0.000327   0.000001  -0.000798   0.000000
    15  O   -0.103588   0.043119   0.060858   0.007793   0.040671  -0.001675
    16  O    0.004415   0.023822  -0.006457   0.008119  -0.080075   0.000037
    17  H   -0.006808   0.292765  -0.306391   0.015215  -0.007463   0.000862
    18  H    0.008440  -0.005080   0.001801  -0.000848   0.018094   0.000000
               7          8          9         10         11         12
     1  C    0.045630   0.012388  -1.055166   0.635618   0.070408  -0.164780
     2  C   -0.084460  -1.055166   1.081944  -0.443060  -0.180109  -0.107645
     3  C    0.083127   0.070408  -0.180109  -0.054168  -0.049959   0.005191
     4  C    0.327782  -0.164780  -0.107645   0.055132   0.005192  -0.025932
     5  S   -0.017503   0.635618  -0.443060   0.154085  -0.054168   0.055132
     6  H   -0.005205   0.003539   0.001738  -0.000298   0.000032   0.000087
     7  H    0.489887   0.000249   0.004192  -0.000798   0.000327   0.000001
     8  C    0.000249   9.008901  -3.657577   0.751119   0.841090  -0.665973
     9  C    0.004192  -3.657577  16.428995  -2.024646  -6.025675   1.640163
    10  S   -0.000798   0.751119  -2.024646  17.022544   0.291405  -0.103780
    11  C    0.000327   0.841090  -6.025675   0.291405  12.045597  -0.889695
    12  C    0.000001  -0.665973   1.640163  -0.103780  -0.889695   6.062998
    13  H    0.000000   0.033684  -0.140740   0.016747   0.419485   0.014249
    14  H    0.000000   0.045630  -0.084460  -0.017503   0.083127   0.327782
    15  O   -0.000304   0.004415   0.023822  -0.080075  -0.006457   0.008119
    16  O   -0.000052  -0.103588   0.043119   0.040671   0.060858   0.007793
    17  H   -0.000013   0.008440  -0.005080   0.018094   0.001801  -0.000848
    18  H   -0.000006  -0.006808   0.292765  -0.007463  -0.306391   0.015215
              13         14         15         16         17         18
     1  C    0.003539   0.000249  -0.103588   0.004415  -0.006808   0.008440
     2  C    0.001738   0.004192   0.043119   0.023822   0.292765  -0.005080
     3  C    0.000032   0.000327   0.060858  -0.006457  -0.306391   0.001801
     4  C    0.000087   0.000001   0.007793   0.008119   0.015215  -0.000848
     5  S   -0.000298  -0.000798   0.040671  -0.080075  -0.007463   0.018094
     6  H    0.000000   0.000000  -0.001675   0.000037   0.000862   0.000000
     7  H    0.000000   0.000000  -0.000304  -0.000052  -0.000013  -0.000006
     8  C    0.033684   0.045630   0.004415  -0.103588   0.008440  -0.006808
     9  C   -0.140740  -0.084460   0.023822   0.043119  -0.005080   0.292765
    10  S    0.016747  -0.017503  -0.080075   0.040671   0.018094  -0.007463
    11  C    0.419485   0.083127  -0.006457   0.060858   0.001801  -0.306391
    12  C    0.014249   0.327782   0.008119   0.007793  -0.000848   0.015215
    13  H    0.542869  -0.005205   0.000037  -0.001675   0.000000   0.000862
    14  H   -0.005205   0.489887  -0.000052  -0.000304  -0.000006  -0.000013
    15  O    0.000037  -0.000052   8.073260  -0.001443   0.188962  -0.000066
    16  O   -0.001675  -0.000304  -0.001443   8.073260  -0.000066   0.188962
    17  H    0.000000  -0.000006   0.188962  -0.000066   0.522137  -0.000000
    18  H    0.000862  -0.000013  -0.000066   0.188962  -0.000000   0.522137
 Mulliken charges:
               1
     1  C    0.238412
     2  C    0.207419
     3  C   -0.306868
     4  C   -0.178079
     5  S   -0.253623
     6  H    0.114588
     7  H    0.157145
     8  C    0.238412
     9  C    0.207419
    10  S   -0.253623
    11  C   -0.306868
    12  C   -0.178079
    13  H    0.114588
    14  H    0.157145
    15  O   -0.257394
    16  O   -0.257394
    17  H    0.278400
    18  H    0.278400
 Sum of Mulliken charges =  -0.00000
 Mulliken charges with hydrogens summed into heavy atoms:
               1
     1  C    0.238412
     2  C    0.207419
     3  C   -0.192280
     4  C   -0.020934
     5  S   -0.253623
     8  C    0.238412
     9  C    0.207419
    10  S   -0.253623
    11  C   -0.192280
    12  C   -0.020934
    15  O    0.021006
    16  O    0.021006
 Electronic spatial extent (au):  <R**2>=           2473.3495
 Charge=             -0.0000 electrons
 Dipole moment (field-independent basis, Debye):
    X=             -0.0000    Y=              0.0000    Z=              0.0011  Tot=              0.0011
 Quadrupole moment (field-independent basis, Debye-Ang):
   XX=            -66.5032   YY=            -69.8727   ZZ=            -89.6856
   XY=            -10.2745   XZ=              0.0000   YZ=             -0.0001
 Traceless Quadrupole moment (field-independent basis, Debye-Ang):
   XX=              8.8506   YY=              5.4812   ZZ=            -14.3318
   XY=            -10.2745   XZ=              0.0000   YZ=             -0.0001
 Octapole moment (field-independent basis, Debye-Ang**2):
  XXX=             -0.0000  YYY=              0.0000  ZZZ=              0.0005  XYY=             -0.0000
  XXY=              0.0000  XXZ=              0.0046  XZZ=              0.0000  YZZ=             -0.0000
  YYZ=              0.0157  XYZ=             -0.0106
 Hexadecapole moment (field-independent basis, Debye-Ang**3):
 XXXX=          -1975.6312 YYYY=           -802.3926 ZZZZ=           -109.8174 XXXY=            -26.6716
 XXXZ=              0.0003 YYYX=           -154.4854 YYYZ=             -0.0021 ZZZX=              0.0006
 ZZZY=             -0.0012 XXYY=           -417.7432 XXZZ=           -441.7597 YYZZ=           -199.9021
 XXYZ=             -0.0003 YYXZ=              0.0006 ZZXY=             -6.8905
 N-N= 8.708463659266D+02 E-N=-4.708057087233D+03  KE= 1.252510818057D+03
 Calling FoFJK, ICntrl=      2127 FMM=F ISym2X=0 I1Cent= 0 IOpClX= 0 NMat=1 NMatS=1 NMatT=0.
 ***** Axes restored to original set *****
 -------------------------------------------------------------------
 Center     Atomic                   Forces (Hartrees/Bohr)
 Number     Number              X              Y              Z
 -------------------------------------------------------------------
      1        6          -0.003388797    0.001551345   -0.000004547
      2        6          -0.003355385   -0.003415045    0.000006462
      3        6           0.002295015    0.000035455   -0.000000309
      4        6          -0.000688849    0.000763910   -0.000003631
      5       16          -0.000013051   -0.000736139    0.000004854
      6        1          -0.001471147    0.001622156    0.000000457
      7        1           0.000003453    0.000016082    0.000000269
      8        6           0.003388797   -0.001551345   -0.000004399
      9        6           0.003355386    0.003415045    0.000006205
     10       16           0.000013051    0.000736139    0.000004863
     11        6          -0.002295016   -0.000035455   -0.000000259
     12        6           0.000688849   -0.000763910   -0.000003658
     13        1           0.001471146   -0.001622155    0.000000442
     14        1          -0.000003453   -0.000016082    0.000000255
     15        8           0.008659438    0.010786528   -0.000005727
     16        8          -0.008659435   -0.010786530   -0.000005264
     17        1          -0.003051290   -0.011073897    0.000002111
     18        1           0.003051286    0.011073899    0.000001876
 -------------------------------------------------------------------
 Cartesian Forces:  Max     0.011073899 RMS     0.003710610

 GradGradGradGradGradGradGradGradGradGradGradGradGradGradGradGradGradGrad
 Berny optimization.
 FormGI is forming the generalized inverse of G from B-inverse, IUseBI=4.
 Internal  Forces:  Max     0.020835401 RMS     0.003351157
 Search for a local minimum.
 Step number   1 out of a maximum of   97 on scan point     1 out of    26
 All quantities printed in internal units (Hartrees-Bohrs-Radians)
 Mixed Optimization -- RFO/linear search
 Second derivative matrix not updated -- first step.
 ITU=  0
     Eigenvalues ---    0.01511   0.01609   0.01609   0.01688   0.01688
     Eigenvalues ---    0.01987   0.01987   0.02100   0.02100   0.02113
     Eigenvalues ---    0.02113   0.02173   0.02173   0.02275   0.02275
     Eigenvalues ---    0.16000   0.16000   0.16000   0.16000   0.16000
     Eigenvalues ---    0.16000   0.22532   0.22584   0.24749   0.24777
     Eigenvalues ---    0.25000   0.25000   0.25000   0.29140   0.29143
     Eigenvalues ---    0.32099   0.32171   0.35945   0.35945   0.36108
     Eigenvalues ---    0.36108   0.39085   0.40679   0.40753   0.45483
     Eigenvalues ---    0.45570   0.50101   0.50101   0.52226   0.52226
     Eigenvalues ---    0.55473   0.554731000.000001000.000001000.00000
     Eigenvalues --- 1000.000001000.000001000.000001000.000001000.00000
     Eigenvalues --- 1000.000001000.000001000.000001000.000001000.00000
     Eigenvalues --- 1000.000001000.000001000.000001000.000001000.00000
     Eigenvalues --- 1000.000001000.000001000.000001000.000001000.00000
     Eigenvalues --- 1000.000001000.000001000.000001000.000001000.00000
     Eigenvalues --- 1000.000001000.000001000.000001000.000001000.00000
     Eigenvalues --- 1000.000001000.000001000.000001000.000001000.00000
     Eigenvalues --- 1000.000001000.00000
 RFO step:  Lambda=-5.56651854D-03 EMin= 1.51092729D-02
 Linear search not attempted -- first point.
 Iteration  1 RMS(Cart)=  0.03824518 RMS(Int)=  0.00226839
 Iteration  2 RMS(Cart)=  0.00230092 RMS(Int)=  0.00000336
 Iteration  3 RMS(Cart)=  0.00000389 RMS(Int)=  0.00000241
 Iteration  4 RMS(Cart)=  0.00000000 RMS(Int)=  0.00000241
 Iteration  1 RMS(Cart)=  0.00000101 RMS(Int)=  0.00000031
 Iteration  2 RMS(Cart)=  0.00000042 RMS(Int)=  0.00000034
 Variable       Old X    -DE/DX   Delta X   Delta X   Delta X     New X
                                 (Linear)    (Quad)   (Total)
    R1        2.62118  -0.00283   0.00000  -0.00664  -0.00663   2.61455
    R2        3.32335   0.00097   0.00000   0.00351   0.00351   3.32686
    R3        2.72816   0.00109   0.00000   0.00274   0.00274   2.73090
    R4        2.69003  -0.00227   0.00000  -0.00620  -0.00619   2.68384
    R5        2.57684  -0.00145   0.00000  -0.00275  -0.00275   2.57409
    R6        2.58219  -0.00111   0.00000  -0.00193  -0.00194   2.58026
    R7        2.04168   0.00166   0.00000   0.00455   0.00455   2.04624
    R8        3.26175   0.00028   0.00000   0.00213   0.00212   3.26387
    R9        2.03912  -0.00002   0.00000  -0.00004  -0.00004   2.03908
   R10        2.62118  -0.00283   0.00000  -0.00609  -0.00609   2.61509
   R11        3.32335   0.00097   0.00000   0.00338   0.00338   3.32673
   R12        2.69003  -0.00227   0.00000  -0.00566  -0.00565   2.68438
   R13        2.57684  -0.00145   0.00000  -0.00275  -0.00275   2.57409
   R14        3.26175   0.00028   0.00000   0.00125   0.00125   3.26299
   R15        2.58219  -0.00111   0.00000  -0.00210  -0.00210   2.58009
   R16        2.04168   0.00166   0.00000   0.00455   0.00455   2.04624
   R17        2.03912  -0.00002   0.00000  -0.00004  -0.00004   2.03908
   R18        1.81414  -0.00010   0.00000  -0.00018  -0.00018   1.81395
   R19        1.81414  -0.00010   0.00000  -0.00018  -0.00018   1.81395
    A1        1.90639  -0.00092   0.00000  -0.00601  -0.00601   1.90038
    A2        2.23296   0.00061   0.00000   0.00357   0.00357   2.23653
    A3        2.14384   0.00032   0.00000   0.00244   0.00244   2.14628
    A4        1.99480   0.00157   0.00000   0.00836   0.00837   2.00317
    A5        2.08497   0.00264   0.00000   0.00000  -0.00000   2.08497
    A6        2.20341  -0.00421   0.00000  -0.00836  -0.00837   2.19505
    A7        1.95572   0.00021   0.00000  -0.00151  -0.00151   1.95422
    A8        2.17384  -0.00156   0.00000  -0.00805  -0.00805   2.16579
    A9        2.15362   0.00135   0.00000   0.00956   0.00956   2.16318
   A10        1.96177  -0.00064   0.00000  -0.00200  -0.00200   1.95976
   A11        2.23094   0.00031   0.00000   0.00097   0.00097   2.23191
   A12        2.09048   0.00033   0.00000   0.00103   0.00103   2.09151
   A13        1.60610  -0.00022   0.00000   0.00116   0.00115   1.60725
   A14        2.23296   0.00061   0.00000   0.00252   0.00252   2.23548
   A15        2.14384   0.00032   0.00000   0.00139   0.00139   2.14522
   A16        1.90639  -0.00092   0.00000  -0.00391  -0.00391   1.90248
   A17        1.99480   0.00157   0.00000   0.00521   0.00522   2.00002
   A18        2.08497   0.00264   0.00000   0.01080   0.01080   2.09577
   A19        2.20341  -0.00421   0.00000  -0.01602  -0.01602   2.18739
   A20        1.60610  -0.00022   0.00000   0.00051   0.00050   1.60660
   A21        1.95572   0.00021   0.00000   0.00041   0.00042   1.95614
   A22        2.17384  -0.00156   0.00000  -0.00901  -0.00901   2.16483
   A23        2.15362   0.00135   0.00000   0.00860   0.00860   2.16221
   A24        1.96177  -0.00064   0.00000  -0.00223  -0.00223   1.95954
   A25        2.09048   0.00033   0.00000   0.00115   0.00115   2.09163
   A26        2.23094   0.00031   0.00000   0.00108   0.00108   2.23202
   A27        2.05933  -0.02084   0.00000  -0.12584  -0.12584   1.93349
   A28        2.05933  -0.02084   0.00000  -0.12584  -0.12584   1.93349
    D1        0.00007  -0.00000   0.00000  -0.00009  -0.00009  -0.00001
    D2       -3.14152  -0.00000   0.00000  -0.00005  -0.00005  -3.14157
    D3       -3.14157  -0.00000   0.00000  -0.00003  -0.00003   3.14159
    D4        0.00003   0.00000   0.00000   0.00001   0.00001   0.00004
    D5       -0.00007   0.00000   0.00000   0.00010   0.00010   0.00003
    D6        3.14156   0.00000   0.00000   0.00004   0.00004  -3.14158
    D7        3.14148  -0.00000   0.00000  -0.00002  -0.00002   3.14146
    D8       -0.00016   0.00000   0.00000   0.00005   0.00005  -0.00011
    D9       -0.00016   0.00000   0.00000   0.00005   0.00005  -0.00012
   D10        3.14138   0.00000   0.00000   0.00011   0.00011   3.14149
   D11       -0.00003   0.00000   0.00000   0.00002   0.00002  -0.00001
   D12        3.14157   0.00000   0.00000   0.00003   0.00003  -3.14158
   D13        3.14156  -0.00000   0.00000  -0.00002  -0.00002   3.14154
   D14       -0.00002  -0.00000   0.00000  -0.00001  -0.00001  -0.00003
   D15       -3.14122  -0.00000   0.00000  -0.00002  -0.00002  -3.14123
   D16        0.00037   0.00000   0.00000   0.00003   0.00003   0.00040
   D17       -0.00003   0.00000   0.00000   0.00006   0.00006   0.00003
   D18       -3.14157  -0.00000   0.00000  -0.00001  -0.00001  -3.14158
   D19        3.14155   0.00000   0.00000   0.00005   0.00005  -3.14158
   D20        0.00001  -0.00000   0.00000  -0.00002  -0.00002  -0.00001
   D21        0.00006  -0.00000   0.00000  -0.00009  -0.00009  -0.00003
   D22       -3.14158  -0.00000   0.00000  -0.00003  -0.00003   3.14158
   D23       -3.14156  -0.00000   0.00000  -0.00003  -0.00003   3.14159
   D24        0.00002   0.00000   0.00000   0.00001   0.00001   0.00004
   D25        0.00007  -0.00000   0.00000  -0.00009  -0.00009  -0.00001
   D26       -3.14152  -0.00000   0.00000  -0.00005  -0.00005  -3.14157
   D27        3.14156   0.00000   0.00000   0.00005   0.00005  -3.14158
   D28       -0.00007   0.00000   0.00000   0.00010   0.00010   0.00003
   D29       -0.00003   0.00000   0.00000   0.00002   0.00002  -0.00001
   D30        3.14157   0.00000   0.00000   0.00003   0.00003  -3.14158
   D31        3.14157  -0.00000   0.00000  -0.00002  -0.00002   3.14154
   D32       -0.00002  -0.00000   0.00000  -0.00001  -0.00001  -0.00003
   D33       -3.14125  -0.00000   0.00000  -0.00002  -0.00002  -3.14126
   D34        0.00034   0.00000   0.00000   0.00003   0.00003   0.00037
   D35        0.00006  -0.00000   0.00000  -0.00009  -0.00009  -0.00003
   D36       -3.14158  -0.00000   0.00000  -0.00003  -0.00003   3.14158
   D37       -0.00003   0.00000   0.00000   0.00006   0.00006   0.00003
   D38       -3.14157  -0.00000   0.00000  -0.00001  -0.00001  -3.14158
   D39        3.14156   0.00000   0.00000   0.00005   0.00005  -3.14158
   D40        0.00001  -0.00000   0.00000  -0.00002  -0.00002  -0.00001
         Item               Value     Threshold  Converged?
 Maximum Force            0.020835     0.000450     NO 
 RMS     Force            0.003350     0.000300     NO 
 Maximum Displacement     0.233236     0.001800     NO 
 RMS     Displacement     0.038491     0.001200     NO 
 Predicted change in Energy=-2.874796D-03
 GradGradGradGradGradGradGradGradGradGradGradGradGradGradGradGradGradGrad

                          Input orientation:                          
 ---------------------------------------------------------------------
 Center     Atomic      Atomic             Coordinates (Angstroms)
 Number     Number       Type             X           Y           Z
 ---------------------------------------------------------------------
      1          6           0       -0.597265   -0.408747   -0.000078
      2          6           0       -1.916917    0.006893   -0.000012
      3          6           0       -2.871932   -1.044293   -0.000034
      4          6           0       -2.278177   -2.273849   -0.000133
      5         16           0       -0.554214   -2.168717   -0.000150
      6          1           0       -3.943778   -0.890509    0.000003
      7          1           0       -2.757028   -3.240812   -0.000179
      8          6           0        0.595505    0.407158   -0.000077
      9          6           0        1.914994   -0.009956   -0.000004
     10         16           0        0.550605    2.167016   -0.000154
     11          6           0        2.867994    1.043440   -0.000026
     12          6           0        2.274063    2.272815   -0.000131
     13          1           0        3.940013    0.890874    0.000017
     14          1           0        2.752634    3.239916   -0.000180
     15          8           0       -2.199601    1.339385    0.000021
     16          8           0        2.210658   -1.339628    0.000038
     17          1           0       -3.148196    1.486287    0.000390
     18          1           0        3.160640   -1.477273    0.000383
 ---------------------------------------------------------------------
                    Distance matrix (angstroms):
                    1          2          3          4          5
     1  C    0.000000
     2  C    1.383560   0.000000
     3  C    2.361785   1.420227   0.000000
     4  C    2.510791   2.309176   1.365414   0.000000
     5  S    1.760496   2.567146   2.576072   1.727166   0.000000
     6  H    3.381012   2.216640   1.082821   2.165145   3.622562
     7  H    3.561624   3.354605   2.199523   1.079034   2.449852
     8  C    1.445131   2.544107   3.758967   3.930121   2.820813
     9  C    2.543714   3.831949   4.897399   4.765281   3.279823
    10  S    2.819957   3.279451   4.693215   5.265291   4.474282
    11  C    3.757242   4.895897   6.107813   6.122703   4.693555
    12  C    3.928778   4.764317   6.122456   6.433898   5.265582
    13  H    4.719736   5.923264   7.081488   6.977203   5.436834
    14  H    4.953238   5.679538   7.070374   7.463958   6.339444
    15  O    2.371381   1.362147   2.476681   3.614089   3.874800
    16  O    2.958204   4.341659   5.091164   4.585020   2.886504
    17  H    3.177798   1.924747   2.545615   3.859476   4.481940
    18  H    3.906866   5.290023   6.048091   5.496842   3.778656
                    6          7          8          9         10
     6  H    0.000000
     7  H    2.632926   0.000000
     8  C    4.721126   4.954510   0.000000
     9  C    5.924574   5.680336   1.383848   0.000000
    10  S    5.435801   6.339167   1.760431   2.569196   0.000000
    11  C    7.080988   7.070763   2.359885   1.420511   2.575405
    12  C    6.976257   7.464044   2.509628   2.310838   1.726702
    13  H    8.082541   7.869001   3.379306   2.216347   3.621688
    14  H    7.867804   8.506245   3.560579   3.356085   2.449499
    15  O    2.831003   4.613993   2.946467   4.330198   2.872039
    16  O    6.170801   5.319060   2.379071   1.362147   3.879733
    17  H    2.506413   4.743256   3.896128   5.279644   3.760920
    18  H    7.128607   6.174857   3.182923   1.924747   4.482536
                   11         12         13         14         15
    11  C    0.000000
    12  C    1.365326   0.000000
    13  H    1.082821   2.164521   0.000000
    14  H    2.199503   1.079034   2.632084   0.000000
    15  O    5.076229   4.570007   6.155974   5.304399   0.000000
    16  O    2.472066   3.613000   2.822376   4.611503   5.160184
    17  H    6.032466   5.479007   7.113172   6.155892   0.959902
    18  H    2.537644   3.853463   2.493099   4.734801   6.055225
                   16         17         18
    16  O    0.000000
    17  H    6.058309   0.000000
    18  H    0.959902   6.970229   0.000000
 Stoichiometry    C8H6O2S2
 Framework group  C1[X(C8H6O2S2)]
 Deg. of freedom    48
 Full point group                 C1      NOp   1
 Largest Abelian subgroup         C1      NOp   1
 Largest concise Abelian subgroup C1      NOp   1
                         Standard orientation:                         
 ---------------------------------------------------------------------
 Center     Atomic      Atomic             Coordinates (Angstroms)
 Number     Number       Type             X           Y           Z
 ---------------------------------------------------------------------
      1          6           0        0.723101   -0.005459   -0.000010
      2          6           0        1.569598   -1.099845    0.000056
      3          6           0        2.953712   -0.781608    0.000034
      4          6           0        3.167780    0.566921   -0.000065
      5         16           0        1.692085    1.464377   -0.000082
      6          1           0        3.746142   -1.519548    0.000071
      7          1           0        4.112810    1.087722   -0.000111
      8          6           0       -0.721990    0.005191   -0.000009
      9          6           0       -1.567511    1.100695    0.000064
     10         16           0       -1.689392   -1.465608   -0.000086
     11          6           0       -2.951232    0.779492    0.000042
     12          6           0       -3.165052   -0.568988   -0.000064
     13          1           0       -3.744499    1.516532    0.000085
     14          1           0       -4.109931   -1.090061   -0.000112
     15          8           0        1.041340   -2.355388    0.000089
     16          8           0       -1.051522    2.361329    0.000106
     17          1           0        1.736486   -3.017343    0.000458
     18          1           0       -1.753089    3.016475    0.000451
 ---------------------------------------------------------------------
 Rotational constants (GHZ):           1.2906461           0.6253842           0.4212614
 Standard basis: 6-311+G(d,p) (5D, 7F)
 There are   328 symmetry adapted cartesian basis functions of A   symmetry.
 There are   316 symmetry adapted basis functions of A   symmetry.
   316 basis functions,   508 primitive gaussians,   328 cartesian basis functions
    51 alpha electrons       51 beta electrons
       nuclear repulsion energy       870.9492321365 Hartrees.
 NAtoms=   18 NActive=   18 NUniq=   18 SFac= 1.00D+00 NAtFMM=   60 NAOKFM=F Big=F
 Integral buffers will be    131072 words long.
 Raffenetti 2 integral format.
 Two-electron integral symmetry is turned on.
 One-electron integrals computed using PRISM.
 NBasis=   316 RedAO= T EigKep=  1.73D-06  NBF=   316
 NBsUse=   315 1.00D-06 EigRej=  6.80D-07 NBFU=   315
 Initial guess from the checkpoint file:  "temp.chk"
 B after Tr=    -0.000000   -0.000000    0.000000
         Rot=    0.999997   -0.000000   -0.000000   -0.002464 Ang=  -0.28 deg.
 ExpMin= 4.05D-02 ExpMax= 9.34D+04 ExpMxC= 3.17D+03 IAcc=2 IRadAn=         4 AccDes= 0.00D+00
 Harris functional with IExCor=  402 and IRadAn=       4 diagonalized for initial guess.
 HarFok:  IExCor=  402 AccDes= 0.00D+00 IRadAn=         4 IDoV= 1 UseB2=F ITyADJ=14
 ICtDFT=  3500011 ScaDFX=  1.000000  1.000000  1.000000  1.000000
 FoFCou: FMM=F IPFlag=           0 FMFlag=      100000 FMFlg1=           0
         NFxFlg=           0 DoJE=T BraDBF=F KetDBF=T FulRan=T
         wScrn=  0.000000 ICntrl=       500 IOpCl=  0 I1Cent=   200000004 NGrid=           0
         NMat0=    1 NMatS0=      1 NMatT0=    0 NMatD0=    1 NMtDS0=    0 NMtDT0=    0
 Petite list used in FoFCou.
 Requested convergence on RMS density matrix=1.00D-08 within 128 cycles.
 Requested convergence on MAX density matrix=1.00D-06.
 Requested convergence on             energy=1.00D-06.
 No special actions if energy rises.
 SCF Done:  E(RB3LYP) =  -1255.43229244     A.U. after   13 cycles
            NFock= 13  Conv=0.32D-08     -V/T= 2.0023
 Calling FoFJK, ICntrl=      2127 FMM=F ISym2X=0 I1Cent= 0 IOpClX= 0 NMat=1 NMatS=1 NMatT=0.
 ***** Axes restored to original set *****
 -------------------------------------------------------------------
 Center     Atomic                   Forces (Hartrees/Bohr)
 Number     Number              X              Y              Z
 -------------------------------------------------------------------
      1        6          -0.001405927   -0.001579038    0.000002400
      2        6           0.005304810   -0.002472537   -0.000001227
      3        6           0.000237825    0.000006956   -0.000001642
      4        6          -0.000055008   -0.000170713    0.000003013
      5       16           0.000369150   -0.000889536   -0.000002995
      6        1          -0.000199677    0.000426688   -0.000000465
      7        1           0.000158093   -0.000033417    0.000000643
      8        6           0.001158402    0.000090612    0.000002528
      9        6          -0.003792179    0.003715054   -0.000001250
     10       16          -0.000227401    0.000776563   -0.000002988
     11        6          -0.000163362    0.000357074   -0.000001659
     12        6           0.000243841    0.000112456    0.000003004
     13        1           0.000260156   -0.000456379   -0.000000465
     14        1          -0.000132824    0.000030584    0.000000653
     15        8          -0.002259616    0.005568674   -0.000000375
     16        8           0.000594708   -0.005711127   -0.000000313
     17        1          -0.002051527   -0.000295955    0.000000615
     18        1           0.001960535    0.000524044    0.000000524
 -------------------------------------------------------------------
 Cartesian Forces:  Max     0.005711127 RMS     0.001656626

 GradGradGradGradGradGradGradGradGradGradGradGradGradGradGradGradGradGrad
 Berny optimization.
 Using GEDIIS/GDIIS optimizer.
 FormGI is forming the generalized inverse of G from B-inverse, IUseBI=4.
 Internal  Forces:  Max     0.006053841 RMS     0.001286500
 Search for a local minimum.
 Step number   2 out of a maximum of   97 on scan point     1 out of    26
 All quantities printed in internal units (Hartrees-Bohrs-Radians)
 Mixed Optimization -- RFO/linear search
 Update second derivatives using D2CorX and points    1    2
 DE= -3.06D-03 DEPred=-2.87D-03 R= 1.06D+00
 TightC=F SS=  1.41D+00  RLast= 1.81D-01 DXNew= 5.0454D-01 5.4394D-01
 Trust test= 1.06D+00 RLast= 1.81D-01 DXMaxT set to 5.05D-01
 ITU=  1  0
 Use linear search instead of GDIIS.
     Eigenvalues ---    0.01511   0.01609   0.01609   0.01687   0.01688
     Eigenvalues ---    0.01988   0.01990   0.02099   0.02100   0.02115
     Eigenvalues ---    0.02115   0.02173   0.02173   0.02277   0.02277
     Eigenvalues ---    0.14545   0.16000   0.16000   0.16000   0.16000
     Eigenvalues ---    0.16106   0.22542   0.22584   0.24632   0.24771
     Eigenvalues ---    0.24989   0.25000   0.25217   0.29116   0.29142
     Eigenvalues ---    0.32090   0.32171   0.35917   0.35945   0.36108
     Eigenvalues ---    0.36108   0.39102   0.40648   0.40771   0.45444
     Eigenvalues ---    0.45553   0.50073   0.50098   0.52226   0.54383
     Eigenvalues ---    0.55473   0.561271000.000001000.000001000.00000
     Eigenvalues --- 1000.000001000.000001000.000001000.000001000.00000
     Eigenvalues --- 1000.000001000.000001000.000001000.000001000.00000
     Eigenvalues --- 1000.000001000.000001000.000001000.000001000.00000
     Eigenvalues --- 1000.000001000.000001000.000001000.000001000.00000
     Eigenvalues --- 1000.000001000.000001000.000001000.000001000.00000
     Eigenvalues --- 1000.000001000.000001000.000001000.000001000.00000
     Eigenvalues --- 1000.000001000.000001000.000001000.000001000.00000
     Eigenvalues --- 1000.000001000.00000
 RFO step:  Lambda=-2.35519040D-04 EMin= 1.51092726D-02
 Quartic linear search produced a step of  0.06509.
 Iteration  1 RMS(Cart)=  0.00639434 RMS(Int)=  0.00005627
 Iteration  2 RMS(Cart)=  0.00005709 RMS(Int)=  0.00000016
 Iteration  3 RMS(Cart)=  0.00000001 RMS(Int)=  0.00000016
 Iteration  1 RMS(Cart)=  0.00000023 RMS(Int)=  0.00000007
 Variable       Old X    -DE/DX   Delta X   Delta X   Delta X     New X
                                 (Linear)    (Quad)   (Total)
    R1        2.61455   0.00017  -0.00043  -0.00055  -0.00098   2.61357
    R2        3.32686   0.00070   0.00023   0.00276   0.00298   3.32984
    R3        2.73090  -0.00040   0.00018  -0.00116  -0.00098   2.72992
    R4        2.68384   0.00017  -0.00040  -0.00055  -0.00095   2.68289
    R5        2.57409   0.00605  -0.00018   0.01241   0.01223   2.58632
    R6        2.58026   0.00023  -0.00013   0.00082   0.00069   2.58095
    R7        2.04624   0.00026   0.00030   0.00064   0.00094   2.04718
    R8        3.26387  -0.00043   0.00014   0.00034   0.00048   3.26435
    R9        2.03908  -0.00004  -0.00000  -0.00012  -0.00012   2.03896
   R10        2.61509  -0.00049  -0.00040  -0.00097  -0.00137   2.61372
   R11        3.32673   0.00072   0.00022   0.00250   0.00272   3.32945
   R12        2.68438   0.00027  -0.00037   0.00080   0.00043   2.68481
   R13        2.57409   0.00562  -0.00018   0.01152   0.01134   2.58543
   R14        3.26299  -0.00008   0.00008  -0.00024  -0.00016   3.26283
   R15        2.58009   0.00010  -0.00014   0.00027   0.00014   2.58023
   R16        2.04624   0.00032   0.00030   0.00083   0.00113   2.04736
   R17        2.03908  -0.00003  -0.00000  -0.00009  -0.00010   2.03898
   R18        1.81395   0.00198  -0.00001   0.00381   0.00380   1.81775
   R19        1.81395   0.00186  -0.00001   0.00358   0.00357   1.81752
    A1        1.90038   0.00099  -0.00039   0.00008  -0.00031   1.90007
    A2        2.23653   0.00010   0.00023   0.00251   0.00274   2.23927
    A3        2.14628  -0.00110   0.00016  -0.00258  -0.00243   2.14385
    A4        2.00317  -0.00144   0.00054   0.00016   0.00071   2.00387
    A5        2.08497   0.00529  -0.00000   0.00000   0.00000   2.08497
    A6        2.19505  -0.00385  -0.00054  -0.00016  -0.00071   2.19434
    A7        1.95422   0.00094  -0.00010   0.00030   0.00020   1.95442
    A8        2.16579  -0.00087  -0.00052  -0.00256  -0.00308   2.16271
    A9        2.16318  -0.00006   0.00062   0.00226   0.00288   2.16605
   A10        1.95976  -0.00002  -0.00013   0.00017   0.00004   1.95980
   A11        2.23191   0.00017   0.00006   0.00097   0.00103   2.23294
   A12        2.09151  -0.00015   0.00007  -0.00114  -0.00107   2.09044
   A13        1.60725  -0.00047   0.00007  -0.00071  -0.00063   1.60661
   A14        2.23548  -0.00028   0.00016  -0.00122  -0.00106   2.23442
   A15        2.14522  -0.00021   0.00009  -0.00087  -0.00078   2.14445
   A16        1.90248   0.00049  -0.00025   0.00209   0.00183   1.90432
   A17        2.00002  -0.00061   0.00034  -0.00289  -0.00255   1.99747
   A18        2.09577   0.00279   0.00070   0.01163   0.01234   2.10811
   A19        2.18739  -0.00218  -0.00104  -0.00875  -0.00979   2.17760
   A20        1.60660  -0.00026   0.00003  -0.00103  -0.00100   1.60560
   A21        1.95614   0.00051   0.00003   0.00236   0.00239   1.95853
   A22        2.16483  -0.00068  -0.00059  -0.00373  -0.00432   2.16051
   A23        2.16221   0.00017   0.00056   0.00137   0.00193   2.16414
   A24        1.95954  -0.00013  -0.00015  -0.00054  -0.00068   1.95885
   A25        2.09163  -0.00007   0.00007  -0.00062  -0.00055   2.09108
   A26        2.23202   0.00020   0.00007   0.00116   0.00123   2.23325
   A27        1.93349  -0.00110  -0.00819  -0.00329  -0.01148   1.92200
   A28        1.93349  -0.00145  -0.00819  -0.00562  -0.01381   1.91967
    D1       -0.00001   0.00000  -0.00001   0.00007   0.00007   0.00005
    D2       -3.14157   0.00000  -0.00000   0.00005   0.00004  -3.14152
    D3        3.14159   0.00000  -0.00000   0.00003   0.00003  -3.14156
    D4        0.00004   0.00000   0.00000   0.00001   0.00001   0.00005
    D5        0.00003  -0.00000   0.00001  -0.00011  -0.00010  -0.00008
    D6       -3.14158  -0.00000   0.00000  -0.00008  -0.00007   3.14153
    D7        3.14146   0.00000  -0.00000   0.00007   0.00007   3.14154
    D8       -0.00011   0.00000   0.00000   0.00003   0.00004  -0.00008
    D9       -0.00012   0.00000   0.00000   0.00003   0.00004  -0.00008
   D10        3.14149  -0.00000   0.00001  -0.00001  -0.00000   3.14149
   D11       -0.00001   0.00000   0.00000   0.00002   0.00002   0.00001
   D12       -3.14158  -0.00000   0.00000  -0.00002  -0.00002   3.14158
   D13        3.14154   0.00000  -0.00000   0.00005   0.00005   3.14159
   D14       -0.00003   0.00000  -0.00000   0.00001   0.00000  -0.00003
   D15       -3.14123  -0.00000  -0.00000   0.00001   0.00000  -3.14123
   D16        0.00040  -0.00000   0.00000  -0.00002  -0.00002   0.00038
   D17        0.00003  -0.00000   0.00000  -0.00011  -0.00010  -0.00007
   D18       -3.14158  -0.00000  -0.00000  -0.00003  -0.00003   3.14157
   D19       -3.14158  -0.00000   0.00000  -0.00006  -0.00006   3.14154
   D20       -0.00001   0.00000  -0.00000   0.00001   0.00001   0.00000
   D21       -0.00003   0.00000  -0.00001   0.00013   0.00012   0.00009
   D22        3.14158   0.00000  -0.00000   0.00006   0.00005  -3.14155
   D23        3.14159   0.00000  -0.00000   0.00003   0.00003  -3.14156
   D24        0.00004   0.00000   0.00000   0.00001   0.00001   0.00004
   D25       -0.00001   0.00000  -0.00001   0.00007   0.00007   0.00005
   D26       -3.14157   0.00000  -0.00000   0.00004   0.00004  -3.14153
   D27       -3.14158  -0.00000   0.00000  -0.00008  -0.00007   3.14153
   D28        0.00003  -0.00000   0.00001  -0.00011  -0.00010  -0.00008
   D29       -0.00001   0.00000   0.00000   0.00002   0.00002   0.00001
   D30       -3.14158  -0.00000   0.00000  -0.00002  -0.00002   3.14158
   D31        3.14154   0.00000  -0.00000   0.00005   0.00005   3.14159
   D32       -0.00003   0.00000  -0.00000   0.00001   0.00001  -0.00002
   D33       -3.14126  -0.00000  -0.00000   0.00001   0.00000  -3.14126
   D34        0.00037  -0.00000   0.00000  -0.00003  -0.00002   0.00035
   D35       -0.00003   0.00000  -0.00001   0.00013   0.00012   0.00009
   D36        3.14158   0.00000  -0.00000   0.00006   0.00005  -3.14155
   D37        0.00003  -0.00000   0.00000  -0.00011  -0.00010  -0.00007
   D38       -3.14158  -0.00000  -0.00000  -0.00003  -0.00003   3.14157
   D39       -3.14158  -0.00000   0.00000  -0.00006  -0.00006   3.14155
   D40       -0.00001   0.00000  -0.00000   0.00001   0.00001   0.00000
         Item               Value     Threshold  Converged?
 Maximum Force            0.006054     0.000450     NO 
 RMS     Force            0.001059     0.000300     NO 
 Maximum Displacement     0.030249     0.001800     NO 
 RMS     Displacement     0.006402     0.001200     NO 
 Predicted change in Energy=-1.328937D-04
 GradGradGradGradGradGradGradGradGradGradGradGradGradGradGradGradGradGrad

                          Input orientation:                          
 ---------------------------------------------------------------------
 Center     Atomic      Atomic             Coordinates (Angstroms)
 Number     Number       Type             X           Y           Z
 ---------------------------------------------------------------------
      1          6           0       -0.599286   -0.406562   -0.000091
      2          6           0       -1.918872    0.007556   -0.000065
      3          6           0       -2.873203   -1.043571   -0.000032
      4          6           0       -2.279132   -2.273382   -0.000020
      5         16           0       -0.554924   -2.168079   -0.000164
      6          1           0       -3.945113   -0.886767    0.000002
      7          1           0       -2.756832   -3.240843    0.000020
      8          6           0        0.594444    0.407017   -0.000090
      9          6           0        1.912085   -0.013517   -0.000057
     10         16           0        0.551137    2.168354   -0.000168
     11          6           0        2.865465    1.039845   -0.000024
     12          6           0        2.274709    2.270828   -0.000018
     13          1           0        3.937372    0.882333    0.000016
     14          1           0        2.754589    3.237225    0.000021
     15          8           0       -2.204284    1.346085   -0.000088
     16          8           0        2.221829   -1.346145   -0.000070
     17          1           0       -3.156632    1.481384    0.000264
     18          1           0        3.176647   -1.461759    0.000259
 ---------------------------------------------------------------------
                    Distance matrix (angstroms):
                    1          2          3          4          5
     1  C    0.000000
     2  C    1.383040   0.000000
     3  C    2.361456   1.419724   0.000000
     4  C    2.511354   2.309214   1.365780   0.000000
     5  S    1.762075   2.567829   2.576613   1.727421   0.000000
     6  H    3.380112   2.214829   1.083319   2.167531   3.624244
     7  H    3.562043   3.354739   2.200351   1.078970   2.449330
     8  C    1.444611   2.544862   3.758826   3.929628   2.819958
     9  C    2.541943   3.831015   4.894894   4.761648   3.275404
    10  S    2.820224   3.281766   4.694951   5.266825   4.475268
    11  C    3.754543   4.894436   6.105156   6.119179   4.689332
    12  C    3.927884   4.765346   6.122601   6.433298   5.264098
    13  H    4.716198   5.921219   7.077643   6.971619   5.430077
    14  H    4.952339   5.680844   7.070873   7.463587   6.337995
    15  O    2.376508   1.368619   2.481513   3.620241   3.881976
    16  O    2.973467   4.356365   5.104008   4.595479   2.895848
    17  H    3.178735   1.924634   2.540813   3.855940   4.481904
    18  H    3.920601   5.303132   6.064286   5.515819   3.797830
                    6          7          8          9         10
     6  H    0.000000
     7  H    2.636984   0.000000
     8  C    4.720323   4.953577   0.000000
     9  C    5.921937   5.675775   1.383123   0.000000
    10  S    5.435994   6.340510   1.761869   2.571525   0.000000
    11  C    7.077839   7.066435   2.357543   1.420741   2.574810
    12  C    6.975428   7.462903   2.509399   2.312949   1.726616
    13  H    8.078570   7.862121   3.376551   2.214573   3.622215
    14  H    7.867230   8.505358   3.560379   3.358145   2.449017
    15  O    2.831275   4.620088   2.952071   4.335091   2.875495
    16  O    6.184028   5.327002   2.392062   1.368151   3.891389
    17  H    2.495965   4.739120   3.901901   5.284565   3.770873
    18  H    7.144934   6.194458   3.187491   1.922634   4.480069
                   11         12         13         14         15
    11  C    0.000000
    12  C    1.365398   0.000000
    13  H    1.083418   2.166188   0.000000
    14  H    2.200176   1.078984   2.635241   0.000000
    15  O    5.078990   4.573459   6.159140   5.307243   0.000000
    16  O    2.471277   3.617359   2.812330   4.614229   5.180596
    17  H    6.038262   5.488414   7.119253   6.166483   0.961911
    18  H    2.520884   3.840013   2.464441   4.717900   6.069465
                   16         17         18
    16  O    0.000000
    17  H    6.076410   0.000000
    18  H    0.961792   6.983732   0.000000
 Stoichiometry    C8H6O2S2
 Framework group  C1[X(C8H6O2S2)]
 Deg. of freedom    48
 Full point group                 C1      NOp   1
 Largest Abelian subgroup         C1      NOp   1
 Largest concise Abelian subgroup C1      NOp   1
                         Standard orientation:                         
 ---------------------------------------------------------------------
 Center     Atomic      Atomic             Coordinates (Angstroms)
 Number     Number       Type             X           Y           Z
 ---------------------------------------------------------------------
      1          6           0        0.723415   -0.006767   -0.000009
      2          6           0        1.572994   -1.098104    0.000018
      3          6           0        2.955848   -0.776651    0.000050
      4          6           0        3.167000    0.572708    0.000062
      5         16           0        1.689146    1.467096   -0.000082
      6          1           0        3.748145   -1.515464    0.000084
      7          1           0        4.110283    1.096535    0.000103
      8          6           0       -0.721161    0.003338   -0.000008
      9          6           0       -1.565491    1.098845    0.000025
     10         16           0       -1.687657   -1.469777   -0.000085
     11          6           0       -2.948834    0.775013    0.000058
     12          6           0       -3.163379   -0.573424    0.000064
     13          1           0       -3.740725    1.514407    0.000098
     14          1           0       -4.107849   -1.095136    0.000103
     15          8           0        1.046155   -2.361259   -0.000006
     16          8           0       -1.062020    2.370990    0.000012
     17          1           0        1.752362   -3.014362    0.000346
     18          1           0       -1.781457    3.009311    0.000341
 ---------------------------------------------------------------------
 Rotational constants (GHZ):           1.2852786           0.6254164           0.4207026
 Standard basis: 6-311+G(d,p) (5D, 7F)
 There are   328 symmetry adapted cartesian basis functions of A   symmetry.
 There are   316 symmetry adapted basis functions of A   symmetry.
   316 basis functions,   508 primitive gaussians,   328 cartesian basis functions
    51 alpha electrons       51 beta electrons
       nuclear repulsion energy       870.2687538882 Hartrees.
 NAtoms=   18 NActive=   18 NUniq=   18 SFac= 1.00D+00 NAtFMM=   60 NAOKFM=F Big=F
 Integral buffers will be    131072 words long.
 Raffenetti 2 integral format.
 Two-electron integral symmetry is turned on.
 One-electron integrals computed using PRISM.
 NBasis=   316 RedAO= T EigKep=  1.73D-06  NBF=   316
 NBsUse=   315 1.00D-06 EigRej=  6.78D-07 NBFU=   315
 Initial guess from the checkpoint file:  "temp.chk"
 B after Tr=    -0.000000    0.000000   -0.000000
         Rot=    1.000000    0.000000   -0.000000   -0.000852 Ang=   0.10 deg.
 ExpMin= 4.05D-02 ExpMax= 9.34D+04 ExpMxC= 3.17D+03 IAcc=2 IRadAn=         4 AccDes= 0.00D+00
 Harris functional with IExCor=  402 and IRadAn=       4 diagonalized for initial guess.
 HarFok:  IExCor=  402 AccDes= 0.00D+00 IRadAn=         4 IDoV= 1 UseB2=F ITyADJ=14
 ICtDFT=  3500011 ScaDFX=  1.000000  1.000000  1.000000  1.000000
 FoFCou: FMM=F IPFlag=           0 FMFlag=      100000 FMFlg1=           0
         NFxFlg=           0 DoJE=T BraDBF=F KetDBF=T FulRan=T
         wScrn=  0.000000 ICntrl=       500 IOpCl=  0 I1Cent=   200000004 NGrid=           0
         NMat0=    1 NMatS0=      1 NMatT0=    0 NMatD0=    1 NMtDS0=    0 NMtDT0=    0
 Petite list used in FoFCou.
 Requested convergence on RMS density matrix=1.00D-08 within 128 cycles.
 Requested convergence on MAX density matrix=1.00D-06.
 Requested convergence on             energy=1.00D-06.
 No special actions if energy rises.
 SCF Done:  E(RB3LYP) =  -1255.43244541     A.U. after   12 cycles
            NFock= 12  Conv=0.19D-08     -V/T= 2.0023
 Calling FoFJK, ICntrl=      2127 FMM=F ISym2X=0 I1Cent= 0 IOpClX= 0 NMat=1 NMatS=1 NMatT=0.
 ***** Axes restored to original set *****
 -------------------------------------------------------------------
 Center     Atomic                   Forces (Hartrees/Bohr)
 Number     Number              X              Y              Z
 -------------------------------------------------------------------
      1        6          -0.001526732   -0.002294719   -0.000004092
      2        6           0.005280850    0.001596093   -0.000000060
      3        6          -0.000200441    0.000014238    0.000003716
      4        6          -0.000160580    0.000161749   -0.000005555
      5       16           0.000135915   -0.000131824    0.000006355
      6        1           0.000083245    0.000026582    0.000000443
      7        1           0.000038656   -0.000017099   -0.000000916
      8        6           0.000721401   -0.000703518   -0.000004186
      9        6          -0.001582361    0.001576793    0.000000235
     10       16          -0.000169975   -0.000092111    0.000006331
     11        6           0.000323172    0.000485337    0.000003668
     12        6           0.000441561   -0.000285176   -0.000005509
     13        1          -0.000011256   -0.000070145    0.000000424
     14        1          -0.000028641    0.000011103   -0.000000905
     15        8          -0.003743710    0.000807469   -0.000000279
     16        8           0.000459381   -0.001250472   -0.000000374
     17        1          -0.000112870    0.000136281    0.000000367
     18        1           0.000052386    0.000029420    0.000000336
 -------------------------------------------------------------------
 Cartesian Forces:  Max     0.005280850 RMS     0.001065551

 GradGradGradGradGradGradGradGradGradGradGradGradGradGradGradGradGradGrad
 Berny optimization.
 Using GEDIIS/GDIIS optimizer.
 FormGI is forming the generalized inverse of G from B-inverse, IUseBI=4.
 Internal  Forces:  Max     0.005133521 RMS     0.000770917
 Search for a local minimum.
 Step number   3 out of a maximum of   97 on scan point     1 out of    26
 All quantities printed in internal units (Hartrees-Bohrs-Radians)
 Mixed Optimization -- En-DIIS/RFO-DIIS
 Update second derivatives using D2CorX and points    1    2    3
 DE= -1.53D-04 DEPred=-1.33D-04 R= 1.15D+00
 TightC=F SS=  1.41D+00  RLast= 3.13D-02 DXNew= 8.4853D-01 9.3835D-02
 Trust test= 1.15D+00 RLast= 3.13D-02 DXMaxT set to 5.05D-01
 ITU=  1  1  0
 Use linear search instead of GDIIS.
     Eigenvalues ---    0.01511   0.01608   0.01609   0.01688   0.01689
     Eigenvalues ---    0.01989   0.01991   0.02100   0.02101   0.02115
     Eigenvalues ---    0.02116   0.02173   0.02173   0.02278   0.02278
     Eigenvalues ---    0.14664   0.16000   0.16000   0.16000   0.16018
     Eigenvalues ---    0.16331   0.22524   0.22592   0.23358   0.24778
     Eigenvalues ---    0.24981   0.25005   0.26130   0.29066   0.29175
     Eigenvalues ---    0.32068   0.32224   0.35932   0.35964   0.36108
     Eigenvalues ---    0.36108   0.39111   0.40533   0.40809   0.43965
     Eigenvalues ---    0.45527   0.47413   0.50098   0.51189   0.52334
     Eigenvalues ---    0.55471   0.560721000.000001000.000001000.00000
     Eigenvalues --- 1000.000001000.000001000.000001000.000001000.00000
     Eigenvalues --- 1000.000001000.000001000.000001000.000001000.00000
     Eigenvalues --- 1000.000001000.000001000.000001000.000001000.00000
     Eigenvalues --- 1000.000001000.000001000.000001000.000001000.00000
     Eigenvalues --- 1000.000001000.000001000.000001000.000001000.00000
     Eigenvalues --- 1000.000001000.000001000.000001000.000001000.00000
     Eigenvalues --- 1000.000001000.000001000.000001000.000001000.00000
     Eigenvalues --- 1000.000001000.00000
 RFO step:  Lambda=-1.14371081D-05 EMin= 1.51092618D-02
 Quartic linear search produced a step of  0.20971.
 Iteration  1 RMS(Cart)=  0.00173664 RMS(Int)=  0.00000179
 Iteration  2 RMS(Cart)=  0.00000201 RMS(Int)=  0.00000009
 Iteration  3 RMS(Cart)=  0.00000000 RMS(Int)=  0.00000009
 Iteration  1 RMS(Cart)=  0.00000010 RMS(Int)=  0.00000003
 Variable       Old X    -DE/DX   Delta X   Delta X   Delta X     New X
                                 (Linear)    (Quad)   (Total)
    R1        2.61357   0.00006  -0.00021  -0.00093  -0.00114   2.61243
    R2        3.32984   0.00005   0.00063   0.00012   0.00074   3.33058
    R3        2.72992   0.00000  -0.00021   0.00019  -0.00001   2.72991
    R4        2.68289   0.00037  -0.00020  -0.00006  -0.00026   2.68263
    R5        2.58632   0.00173   0.00256   0.00192   0.00449   2.59080
    R6        2.58095  -0.00028   0.00015  -0.00048  -0.00033   2.58062
    R7        2.04718  -0.00008   0.00020  -0.00037  -0.00017   2.04701
    R8        3.26435  -0.00042   0.00010   0.00032   0.00042   3.26477
    R9        2.03896  -0.00000  -0.00003   0.00001  -0.00001   2.03895
   R10        2.61372  -0.00068  -0.00029  -0.00160  -0.00189   2.61184
   R11        3.32945  -0.00000   0.00057  -0.00044   0.00013   3.32958
   R12        2.68481   0.00036   0.00009   0.00086   0.00096   2.68577
   R13        2.58543   0.00131   0.00238   0.00110   0.00348   2.58891
   R14        3.26283   0.00025  -0.00003   0.00101   0.00098   3.26381
   R15        2.58023  -0.00040   0.00003  -0.00095  -0.00092   2.57931
   R16        2.04736  -0.00000   0.00024  -0.00014   0.00010   2.04746
   R17        2.03898  -0.00000  -0.00002   0.00000  -0.00002   2.03897
   R18        1.81775   0.00013   0.00080  -0.00034   0.00045   1.81820
   R19        1.81752   0.00005   0.00075  -0.00049   0.00026   1.81779
    A1        1.90007   0.00079  -0.00007  -0.00086  -0.00092   1.89914
    A2        2.23927  -0.00000   0.00057   0.00191   0.00248   2.24175
    A3        2.14385  -0.00079  -0.00051  -0.00105  -0.00156   2.14229
    A4        2.00387  -0.00124   0.00015   0.00124   0.00138   2.00526
    A5        2.08497   0.00513   0.00000   0.00000   0.00000   2.08497
    A6        2.19434  -0.00389  -0.00015  -0.00124  -0.00138   2.19296
[...]
    10  S    2.812868   3.251774   4.671759   5.252675   4.464638
    11  C    3.759718   4.883553   6.092520   6.118484   4.691504
    12  C    3.928625   4.744726   6.105318   6.427222   5.261672
    13  H    4.722430   5.912503   7.066406   6.973114   5.434466
    14  H    4.951419   5.655672   7.051139   7.455735   6.334987
    15  O    2.446023   1.368160   2.436406   3.606562   3.922103
    16  O    2.988871   4.369489   5.104794   4.606563   2.907889
    17  H    3.212096   1.913497   2.444441   3.774665   4.464075
    18  H    3.935063   5.314206   6.065542   5.529423   3.812791
                    6          7          8          9         10
     6  H    0.000000
     7  H    2.631064   0.000000
     8  C    4.708118   4.948060   0.000000
     9  C    5.912187   5.677360   1.380804   0.000000
    10  S    5.412367   6.326703   1.761355   2.569857   0.000000
    11  C    7.065166   7.067834   2.357051   1.422207   2.574007
    12  C    6.957472   7.458168   2.510358   2.313755   1.727933
    13  H    8.067278   7.866372   3.375487   2.215445   3.621792
    14  H    7.846006   8.498888   3.561046   3.359377   2.449930
    15  O    2.743340   4.593184   3.061850   4.442629   2.977908
    16  O    6.185652   5.339919   2.393361   1.370288   3.892485
    17  H    2.343897   4.634390   3.995242   5.374286   3.903191
    18  H    7.146920   6.211457   3.187139   1.923556   4.478908
                   11         12         13         14         15
    11  C    0.000000
    12  C    1.364572   0.000000
    13  H    1.083382   2.165645   0.000000
    14  H    2.200350   1.078907   2.636365   0.000000
    15  O    5.190008   4.680627   6.270094   5.406729   0.000000
    16  O    2.472894   3.619194   2.811838   4.616352   5.283925
    17  H    6.151034   5.619643   7.230761   6.304768   0.961215
    18  H    2.519926   3.838727   2.461333   4.717032   6.174379
                   16         17         18
    16  O    0.000000
    17  H    6.145687   0.000000
    18  H    0.961824   7.058052   0.000000
 Stoichiometry    C8H6O2S2
 Framework group  C1[X(C8H6O2S2)]
 Deg. of freedom    48
 Full point group                 C1      NOp   1
 Largest Abelian subgroup         C1      NOp   1
 Largest concise Abelian subgroup C1      NOp   1
                         Standard orientation:                         
 ---------------------------------------------------------------------
 Center     Atomic      Atomic             Coordinates (Angstroms)
 Number     Number       Type             X           Y           Z
 ---------------------------------------------------------------------
      1          6           0        0.719344    0.007248   -0.000147
      2          6           0        1.562984   -1.085634   -0.000377
      3          6           0        2.945535   -0.726547   -0.000020
      4          6           0        3.147480    0.620519    0.000468
      5         16           0        1.658904    1.495100    0.000372
      6          1           0        3.748324   -1.455209   -0.000236
      7          1           0        4.085166    1.154204    0.000738
      8          6           0       -0.727608    0.005071   -0.000137
      9          6           0       -1.591735    1.082059   -0.000263
     10         16           0       -1.663951   -1.486783    0.000272
     11          6           0       -2.970002    0.731267    0.000071
     12          6           0       -3.158856   -0.620174    0.000429
     13          1           0       -3.775420    1.455848   -0.000043
     14          1           0       -4.092180   -1.161418    0.000665
     15          8           0        1.171565   -2.396608   -0.001050
     16          8           0       -1.115244    2.366833   -0.000838
     17          1           0        1.950773   -2.959423    0.001959
     18          1           0       -1.849338    2.988287    0.001568
 ---------------------------------------------------------------------
 Rotational constants (GHZ):           1.2691241           0.6246105           0.4185952

 **********************************************************************

            Population analysis using the SCF density.

 **********************************************************************

 Orbital symmetries:
       Occupied  (A) (A) (A) (A) (A) (A) (A) (A) (A) (A) (A) (A)
                 (A) (A) (A) (A) (A) (A) (A) (A) (A) (A) (A) (A)
                 (A) (A) (A) (A) (A) (A) (A) (A) (A) (A) (A) (A)
                 (A) (A) (A) (A) (A) (A) (A) (A) (A) (A) (A) (A)
                 (A) (A) (A)
       Virtual   (A) (A) (A) (A) (A) (A) (A) (A) (A) (A) (A) (A)
                 (A) (A) (A) (A) (A) (A) (A) (A) (A) (A) (A) (A)
                 (A) (A) (A) (A) (A) (A) (A) (A) (A) (A) (A) (A)
                 (A) (A) (A) (A) (A) (A) (A) (A) (A) (A) (A) (A)
                 (A) (A) (A) (A) (A) (A) (A) (A) (A) (A) (A) (A)
                 (A) (A) (A) (A) (A) (A) (A) (A) (A) (A) (A) (A)
                 (A) (A) (A) (A) (A) (A) (A) (A) (A) (A) (A) (A)
                 (A) (A) (A) (A) (A) (A) (A) (A) (A) (A) (A) (A)
                 (A) (A) (A) (A) (A) (A) (A) (A) (A) (A) (A) (A)
                 (A) (A) (A) (A) (A) (A) (A) (A) (A) (A) (A) (A)
                 (A) (A) (A) (A) (A) (A) (A) (A) (A) (A) (A) (A)
                 (A) (A) (A) (A) (A) (A) (A) (A) (A) (A) (A) (A)
                 (A) (A) (A) (A) (A) (A) (A) (A) (A) (A) (A) (A)
                 (A) (A) (A) (A) (A) (A) (A) (A) (A) (A) (A) (A)
                 (A) (A) (A) (A) (A) (A) (A) (A) (A) (A) (A) (A)
                 (A) (A) (A) (A) (A) (A) (A) (A) (A) (A) (A) (A)
                 (A) (A) (A) (A) (A) (A) (A) (A) (A) (A) (A) (A)
                 (A) (A) (A) (A) (A) (A) (A) (A) (A) (A) (A) (A)
                 (A) (A) (A) (A) (A) (A) (A) (A) (A) (A) (A) (A)
                 (A) (A) (A) (A) (A) (A) (A) (A) (A) (A) (A) (A)
                 (A) (A) (A) (A) (A) (A) (A) (A) (A) (A) (A) (A)
                 (A) (A) (A) (A) (A) (A) (A) (A) (A) (A) (A) (A)
 The electronic state is 1-A.
 Alpha  occ. eigenvalues --  -88.87500 -88.87493 -19.16441 -19.16404 -10.23891
 Alpha  occ. eigenvalues --  -10.23815 -10.20980 -10.20828 -10.20204 -10.20094
 Alpha  occ. eigenvalues --  -10.18318 -10.18155  -7.96066  -7.96061  -5.92387
 Alpha  occ. eigenvalues --   -5.92376  -5.91991  -5.91986  -5.91621  -5.91619
 Alpha  occ. eigenvalues --   -1.07481  -1.07340  -0.89196  -0.87442  -0.77256
 Alpha  occ. eigenvalues --   -0.73738  -0.72911  -0.70876  -0.61052  -0.60527
 Alpha  occ. eigenvalues --   -0.59272  -0.55790  -0.53674  -0.49131  -0.48178
 Alpha  occ. eigenvalues --   -0.47180  -0.43553  -0.43448  -0.42963  -0.41493
 Alpha  occ. eigenvalues --   -0.38398  -0.38151  -0.37307  -0.35397  -0.35088
 Alpha  occ. eigenvalues --   -0.34616  -0.33656  -0.28139  -0.24275  -0.23998
 Alpha  occ. eigenvalues --   -0.19283
 Alpha virt. eigenvalues --   -0.04160  -0.01641  -0.00651   0.00020   0.00734
 Alpha virt. eigenvalues --    0.00816   0.02964   0.03020   0.03972   0.04066
 Alpha virt. eigenvalues --    0.04626   0.05494   0.05757   0.05800   0.06315
 Alpha virt. eigenvalues --    0.06874   0.07386   0.08321   0.09053   0.09915
 Alpha virt. eigenvalues --    0.09930   0.10210   0.11491   0.11545   0.13010
 Alpha virt. eigenvalues --    0.13340   0.14048   0.14282   0.14364   0.14976
 Alpha virt. eigenvalues --    0.15265   0.15484   0.15687   0.16458   0.17303
 Alpha virt. eigenvalues --    0.17772   0.17913   0.18668   0.18787   0.18887
 Alpha virt. eigenvalues --    0.19501   0.19879   0.19980   0.20416   0.21599
 Alpha virt. eigenvalues --    0.21707   0.22771   0.23718   0.24912   0.25504
 Alpha virt. eigenvalues --    0.26163   0.26327   0.26864   0.27296   0.27370
 Alpha virt. eigenvalues --    0.28737   0.28836   0.29468   0.30592   0.30982
 Alpha virt. eigenvalues --    0.34073   0.34296   0.34927   0.35203   0.35603
 Alpha virt. eigenvalues --    0.36354   0.36905   0.37797   0.40904   0.42074
 Alpha virt. eigenvalues --    0.44152   0.44776   0.45536   0.45988   0.49438
 Alpha virt. eigenvalues --    0.49698   0.50212   0.51661   0.54675   0.54914
 Alpha virt. eigenvalues --    0.56094   0.56582   0.57191   0.57554   0.58496
 Alpha virt. eigenvalues --    0.59927   0.59988   0.60980   0.62243   0.62313
 Alpha virt. eigenvalues --    0.63712   0.65223   0.68078   0.69877   0.71325
 Alpha virt. eigenvalues --    0.71875   0.74179   0.74829   0.75084   0.75381
 Alpha virt. eigenvalues --    0.75706   0.77636   0.77814   0.78967   0.81864
 Alpha virt. eigenvalues --    0.81951   0.82350   0.84158   0.85879   0.86597
 Alpha virt. eigenvalues --    0.87322   0.88426   0.88704   0.90337   0.92539
 Alpha virt. eigenvalues --    0.95120   0.97036   0.98910   1.01061   1.01826
 Alpha virt. eigenvalues --    1.01884   1.03462   1.04966   1.06517   1.06617
 Alpha virt. eigenvalues --    1.06852   1.07358   1.07643   1.09536   1.12751
 Alpha virt. eigenvalues --    1.16106   1.16150   1.18080   1.23813   1.24393
 Alpha virt. eigenvalues --    1.25490   1.29569   1.32245   1.34910   1.35811
 Alpha virt. eigenvalues --    1.38754   1.40198   1.41404   1.44759   1.47209
 Alpha virt. eigenvalues --    1.50919   1.54168   1.55301   1.56955   1.59102
 Alpha virt. eigenvalues --    1.59473   1.61057   1.62613   1.65503   1.66158
 Alpha virt. eigenvalues --    1.66764   1.69227   1.73638   1.75366   1.76930
 Alpha virt. eigenvalues --    1.77618   1.78042   1.78523   1.79930   1.80159
 Alpha virt. eigenvalues --    1.85496   1.87029   1.88483   1.89510   1.92864
 Alpha virt. eigenvalues --    1.95298   1.96197   1.98502   2.01210   2.02619
 Alpha virt. eigenvalues --    2.02864   2.05931   2.06104   2.08484   2.10202
 Alpha virt. eigenvalues --    2.10498   2.11203   2.15434   2.15805   2.16209
 Alpha virt. eigenvalues --    2.16907   2.19341   2.20034   2.37757   2.40992
 Alpha virt. eigenvalues --    2.44978   2.50514   2.52836   2.54418   2.60980
 Alpha virt. eigenvalues --    2.61708   2.63425   2.64593   2.66304   2.67164
 Alpha virt. eigenvalues --    2.71044   2.72382   2.73163   2.74703   2.75602
 Alpha virt. eigenvalues --    2.78042   2.83798   2.91220   2.95117   2.97051
 Alpha virt. eigenvalues --    2.97991   2.98870   3.07991   3.08754   3.12238
 Alpha virt. eigenvalues --    3.14017   3.16471   3.17306   3.20390   3.23378
 Alpha virt. eigenvalues --    3.29336   3.30778   3.34524   3.35797   3.42423
 Alpha virt. eigenvalues --    3.46831   3.47595   3.50341   3.55707   3.74612
 Alpha virt. eigenvalues --    3.87698   3.89520   3.97636   4.07077   4.08062
 Alpha virt. eigenvalues --    4.18698   4.28580   4.57390   4.99220   4.99882
 Alpha virt. eigenvalues --    5.46312   5.47300   5.72101   5.76240   7.99292
 Alpha virt. eigenvalues --    8.00417  17.28730  17.29715  17.46749  17.49999
 Alpha virt. eigenvalues --   17.53230  17.58254  23.49186  23.69791  23.80651
 Alpha virt. eigenvalues --   23.83369  24.04836  24.05640  24.15821  24.16531
 Alpha virt. eigenvalues --   49.93682  49.94591 189.15551 189.17324
          Condensed to atoms (all electrons):
               1          2          3          4          5          6
     1  C    9.417880  -4.461059   1.406052  -0.907892   0.704038   0.002339
     2  C   -4.461059  18.560807  -6.906088   2.099970  -2.155912  -0.133465
     3  C    1.406052  -6.906088  12.778707  -1.214325   0.388463   0.426636
     4  C   -0.907892   2.099970  -1.214325   6.384009  -0.181992   0.043289
     5  S    0.704038  -2.155912   0.388463  -0.181992  17.089937   0.016623
     6  H    0.002339  -0.133465   0.426636   0.043289   0.016623   0.551005
     7  H    0.053656  -0.092078   0.095185   0.312154  -0.016766  -0.005339
     8  C    0.160787  -1.212227   0.009983  -0.233128   0.623725  -0.009067
     9  C   -1.198991   0.706291  -0.323558  -0.220173  -0.333067  -0.001054
    10  S    0.618412  -0.270049  -0.040923   0.091240   0.128827   0.000534
    11  C    0.053858  -0.229476  -0.097612   0.024453  -0.035446   0.000070
    12  C   -0.207141  -0.208251   0.028044  -0.036651   0.078718  -0.000004
    13  H   -0.005242   0.000206   0.000102   0.000014   0.000222   0.000000
    14  H    0.001317   0.005161   0.000300   0.000021  -0.000901   0.000000
    15  O   -0.029257  -0.163426   0.169641   0.002410   0.038961  -0.007541
    16  O    0.005251   0.038296  -0.006039   0.016382  -0.056856   0.000029
    17  H   -0.017558   0.365618  -0.361300   0.014682  -0.008642   0.004988
    18  H    0.023025  -0.001268   0.002793  -0.003517   0.007584   0.000000
               7          8          9         10         11         12
     1  C    0.053656   0.160787  -1.198991   0.618412   0.053858  -0.207141
     2  C   -0.092078  -1.212227   0.706291  -0.270049  -0.229476  -0.208251
     3  C    0.095185   0.009983  -0.323558  -0.040923  -0.097612   0.028044
     4  C    0.312154  -0.233128  -0.220173   0.091240   0.024453  -0.036651
     5  S   -0.016766   0.623725  -0.333067   0.128827  -0.035446   0.078718
     6  H   -0.005339  -0.009067  -0.001054   0.000534   0.000070  -0.000004
     7  H    0.489512   0.001866   0.005347  -0.001021   0.000310   0.000022
     8  C    0.001866   9.733253  -4.742623   0.737950   1.379073  -0.901044
     9  C    0.005347  -4.742623  18.980072  -2.268512  -6.878805   2.125325
    10  S   -0.001021   0.737950  -2.268512  17.126648   0.416899  -0.220025
    11  C    0.000310   1.379073  -6.878805   0.416899  12.589121  -1.218044
    12  C    0.000022  -0.901044   2.125325  -0.220025  -1.218044   6.359899
    13  H    0.000000   0.004651  -0.121830   0.015617   0.412966   0.040734
    14  H    0.000000   0.054219  -0.095063  -0.016596   0.094221   0.315817
    15  O   -0.000328  -0.024978   0.026690  -0.047934  -0.004504   0.015840
    16  O   -0.000039  -0.013968  -0.203496   0.043451   0.154739  -0.004218
    17  H   -0.000029   0.034225   0.002818   0.005989   0.003156  -0.003775
    18  H   -0.000003  -0.025926   0.358089  -0.009863  -0.331329   0.015778
              13         14         15         16         17         18
     1  C   -0.005242   0.001317  -0.029257   0.005251  -0.017558   0.023025
     2  C    0.000206   0.005161  -0.163426   0.038296   0.365618  -0.001268
     3  C    0.000102   0.000300   0.169641  -0.006039  -0.361300   0.002793
     4  C    0.000014   0.000021   0.002410   0.016382   0.014682  -0.003517
     5  S    0.000222  -0.000901   0.038961  -0.056856  -0.008642   0.007584
     6  H    0.000000   0.000000  -0.007541   0.000029   0.004988   0.000000
     7  H    0.000000   0.000000  -0.000328  -0.000039  -0.000029  -0.000003
     8  C    0.004651   0.054219  -0.024978  -0.013968   0.034225  -0.025926
     9  C   -0.121830  -0.095063   0.026690  -0.203496   0.002818   0.358089
    10  S    0.015617  -0.016596  -0.047934   0.043451   0.005989  -0.009863
    11  C    0.412966   0.094221  -0.004504   0.154739   0.003156  -0.331329
    12  C    0.040734   0.315817   0.015840  -0.004218  -0.003775   0.015778
    13  H    0.545519  -0.005153   0.000019  -0.005149   0.000000   0.003547
    14  H   -0.005153   0.488152  -0.000038  -0.000291  -0.000002  -0.000027
    15  O    0.000019  -0.000038   8.082431  -0.000821   0.161144  -0.000035
    16  O   -0.005149  -0.000291  -0.000821   8.096749  -0.000036   0.160123
    17  H    0.000000  -0.000002   0.161144  -0.000036   0.541444  -0.000000
    18  H    0.003547  -0.000027  -0.000035   0.160123  -0.000000   0.540485
 Mulliken charges:
               1
     1  C    0.380525
     2  C    0.056954
     3  C   -0.356058
     4  C   -0.190947
     5  S   -0.287516
     6  H    0.110959
     7  H    0.157551
     8  C    0.423231
     9  C    0.182540
    10  S   -0.310644
    11  C   -0.333649
    12  C   -0.181024
    13  H    0.113775
    14  H    0.158863
    15  O   -0.218272
    16  O   -0.224107
    17  H    0.257276
    18  H    0.260543
 Sum of Mulliken charges =  -0.00000
 Mulliken charges with hydrogens summed into heavy atoms:
               1
     1  C    0.380525
     2  C    0.056954
     3  C   -0.245099
     4  C   -0.033396
     5  S   -0.287516
     8  C    0.423231
     9  C    0.182540
    10  S   -0.310644
    11  C   -0.219874
    12  C   -0.022161
    15  O    0.039004
    16  O    0.036436
 Electronic spatial extent (au):  <R**2>=           2491.1146
 Charge=             -0.0000 electrons
 Dipole moment (field-independent basis, Debye):
    X=             -0.0004    Y=              0.1452    Z=              0.0087  Tot=              0.1455
 Quadrupole moment (field-independent basis, Debye-Ang):
   XX=            -63.8880   YY=            -73.8327   ZZ=            -89.6090
   XY=            -10.0932   XZ=              0.0021   YZ=             -0.0029
 Traceless Quadrupole moment (field-independent basis, Debye-Ang):
   XX=             11.8886   YY=              1.9438   ZZ=            -13.8324
   XY=            -10.0932   XZ=              0.0021   YZ=             -0.0029
 Octapole moment (field-independent basis, Debye-Ang**2):
  XXX=              0.7710  YYY=              2.9838  ZZZ=             -0.0071  XYY=             -0.0423
  XXY=             -0.7764  XXZ=              0.0337  XZZ=              0.1433  YZZ=             -0.0316
  YYZ=              0.0951  XYZ=             -0.0469
 Hexadecapole moment (field-independent basis, Debye-Ang**3):
 XXXX=          -1963.1599 YYYY=           -887.9036 ZZZZ=           -109.4358 XXXY=            -44.5134
 XXXZ=              0.0103 YYYX=           -143.4674 YYYZ=             -0.0448 ZZZX=              0.0034
 ZZZY=             -0.0183 XXYY=           -401.9880 XXZZ=           -442.3425 YYZZ=           -201.6741
 XXYZ=             -0.0164 YYXZ=              0.0230 ZZXY=             -8.2533
 N-N= 8.686005476416D+02 E-N=-4.703367607647D+03  KE= 1.252538734857D+03
 1\1\GINC-CX1-141-15-2\Scan\RB3LYP\6-311+G(d,p)\C8H6O2S2\NS5018\07-Feb-
 2020\0\\# opt=modredundant b3lyp/6-311+g(d,p) geom=connectivity\\Title
  Card Required\\0,1\C,-0.5937454398,-0.4016390433,-0.0003546855\C,-1.9
 00929248,0.0426491069,-0.0005850451\C,-2.8544745166,-1.0209031327,-0.0
 002279628\C,-2.2780412681,-2.2550390948,0.0002608925\S,-0.5541265769,-
 2.1608734967,0.000164422\H,-3.9262611456,-0.8575309568,-0.0004436556\H
 ,-2.7643614803,-3.2181427019,0.0005300605\C,0.6107782264,0.4001067809,
 -0.0003442523\C,1.9262464529,-0.0196096768,-0.0004705912\S,0.566265813
 3,2.1608988198,0.000064675\C,2.8808073249,1.0346613573,-0.0001369546\C
 ,2.291047247,2.2652060635,0.000221663\H,3.9525294364,0.8761431817,-0.0
 002505716\H,2.769554022,3.2321969033,0.0004575654\O,-2.2995226364,1.35
 14590677,-0.001257582\O,2.2394653018,-1.3536196705,-0.0010454007\H,-3.
 2599730789,1.3896696226,0.0017519063\H,3.1947415757,-1.4656331403,0.00
 13607767\\Version=ES64L-G16RevA.03\State=1-A\HF=-1255.4324571,-1255.43
 24915,-1255.4325191,-1255.43254,-1255.4325542,-1255.4325615,-1255.4325
 627,-1255.4325569,-1255.4325446,-1255.4325257,-1255.4325002,-1255.4324
 681,-1255.4324295,-1255.4323842,-1255.4323328,-1255.4322746,-1255.4322
 102,-1255.4321393,-1255.4320619,-1255.4319778,-1255.4318876,-1255.4317
 91,-1255.4316881,-1255.4315787,-1255.4314631,-1255.4313411\RMSD=7.712e
 -09,6.121e-09,4.911e-09,6.310e-09,4.758e-09,5.275e-09,5.897e-09,4.400e
 -09,5.211e-09,4.370e-09,5.280e-09,4.870e-09,5.762e-09,4.656e-09,7.387e
 -09,4.724e-09,4.043e-09,4.098e-09,3.853e-09,3.444e-09,3.931e-09,3.786e
 -09,3.782e-09,3.710e-09,3.676e-09,3.540e-09\PG=C01 [X(C8H6O2S2)]\\@


 IT IS WELL TO REMEMBER THAT MAN IS A PART OF NATURE AND THAT HIS WORKS,
 WHATEVER THEY MAY BE, ARE NO MORE "UNNATURAL" THAN 
 THE FLIGHT OF AN EAGLE OR THE PASSAGE OF A TORNADO.

                                    -- CHARLES MCCARRY IN "THE GREAT SOUTHWEST"
 Job cpu time:       0 days  6 hours 45 minutes  9.0 seconds.
 Elapsed time:       0 days  0 hours 50 minutes 42.0 seconds.
 File lengths (MBytes):  RWF=     68 Int=      0 D2E=      0 Chk=     11 Scr=      1
 Normal termination of Gaussian 16 at Fri Feb  7 00:01:08 2020.
