 Entering Gaussian System, Link 0=g16
 Input=b3lyp_with_methyl.gjf
 Output=b3lyp_with_methyl.log
 Initial command:
 /apps/gaussian/g16-a03/l1.exe "/tmp/pbs.1042531[2].pbs/Gau-39913.inp" -scrdir="/tmp/pbs.1042531[2].pbs/"
 Entering Link 1 = /apps/gaussian/g16-a03/l1.exe PID=     39914.
  
 Copyright (c) 1988,1990,1992,1993,1995,1998,2003,2009,2016,
            Gaussian, Inc.  All Rights Reserved.
  
 This is part of the Gaussian(R) 16 program.  It is based on
 the Gaussian(R) 09 system (copyright 2009, Gaussian, Inc.),
 the Gaussian(R) 03 system (copyright 2003, Gaussian, Inc.),
 the Gaussian(R) 98 system (copyright 1998, Gaussian, Inc.),
 the Gaussian(R) 94 system (copyright 1995, Gaussian, Inc.),
 the Gaussian 92(TM) system (copyright 1992, Gaussian, Inc.),
 the Gaussian 90(TM) system (copyright 1990, Gaussian, Inc.),
 the Gaussian 88(TM) system (copyright 1988, Gaussian, Inc.),
 the Gaussian 86(TM) system (copyright 1986, Carnegie Mellon
 University), and the Gaussian 82(TM) system (copyright 1983,
 Carnegie Mellon University). Gaussian is a federally registered
 trademark of Gaussian, Inc.
  
 This software contains proprietary and confidential information,
 including trade secrets, belonging to Gaussian, Inc.
  
 This software is provided under written license and may be
 used, copied, transmitted, or stored only in accord with that
 written license.
  
 The following legend is applicable only to US Government
 contracts under FAR:
  
                    RESTRICTED RIGHTS LEGEND
  
 Use, reproduction and disclosure by the US Government is
 subject to restrictions as set forth in subparagraphs (a)
 and (c) of the Commercial Computer Software - Restricted
 Rights clause in FAR 52.227-19.
  
 Gaussian, Inc.
 340 Quinnipiac St., Bldg. 40, Wallingford CT 06492
  
  
 ---------------------------------------------------------------
 Warning -- This program may not be used in any manner that
 competes with the business of Gaussian, Inc. or will provide
 assistance to any competitor of Gaussian, Inc.  The licensee
 of this program is prohibited from giving any competitor of
 Gaussian, Inc. access to this program.  By using this program,
 the user acknowledges that Gaussian, Inc. is engaged in the
 business of creating and licensing software in the field of
 computational chemistry and represents and warrants to the
 licensee that it is not a competitor of Gaussian, Inc. and that
 it will not use this program in any manner prohibited above.
 ---------------------------------------------------------------
  

 Cite this work as:
 Gaussian 16, Revision A.03,
 M. J. Frisch, G. W. Trucks, H. B. Schlegel, G. E. Scuseria, 
 M. A. Robb, J. R. Cheeseman, G. Scalmani, V. Barone, 
 G. A. Petersson, H. Nakatsuji, X. Li, M. Caricato, A. V. Marenich, 
 J. Bloino, B. G. Janesko, R. Gomperts, B. Mennucci, H. P. Hratchian, 
 J. V. Ortiz, A. F. Izmaylov, J. L. Sonnenberg, D. Williams-Young, 
 F. Ding, F. Lipparini, F. Egidi, J. Goings, B. Peng, A. Petrone, 
 T. Henderson, D. Ranasinghe, V. G. Zakrzewski, J. Gao, N. Rega, 
 G. Zheng, W. Liang, M. Hada, M. Ehara, K. Toyota, R. Fukuda, 
 J. Hasegawa, M. Ishida, T. Nakajima, Y. Honda, O. Kitao, H. Nakai, 
 T. Vreven, K. Throssell, J. A. Montgomery, Jr., J. E. Peralta, 
 F. Ogliaro, M. J. Bearpark, J. J. Heyd, E. N. Brothers, K. N. Kudin, 
 V. N. Staroverov, T. A. Keith, R. Kobayashi, J. Normand, 
 K. Raghavachari, A. P. Rendell, J. C. Burant, S. S. Iyengar, 
 J. Tomasi, M. Cossi, J. M. Millam, M. Klene, C. Adamo, R. Cammi, 
 J. W. Ochterski, R. L. Martin, K. Morokuma, O. Farkas, 
 J. B. Foresman, and D. J. Fox, Gaussian, Inc., Wallingford CT, 2016.
 
 ******************************************
 Gaussian 16:  ES64L-G16RevA.03 25-Dec-2016
                 6-Feb-2020 
 ******************************************
 %mem=10GB
 %nprocshared=8
 Will use up to    8 processors via shared memory.
 %chk=temp.chk
 -------------------------------------------------------
 # opt=modredundant b3lyp/6-311+g(d,p) geom=connectivity
 -------------------------------------------------------
 1/18=120,19=15,26=3,38=1,57=2/1,3;
 2/9=110,12=2,17=6,18=5,40=1/2;
 3/5=4,6=6,7=111,11=2,25=1,30=1,71=1,74=-5/1,2,3;
 4//1;
 5/5=2,38=5/2;
 6/7=2,8=2,9=2,10=2,28=1/1;
 7//1,2,3,16;
 1/18=20,19=15,26=3/3(2);
 2/9=110/2;
 99//99;
 2/9=110/2;
 3/5=4,6=6,7=111,11=2,25=1,30=1,71=1,74=-5/1,2,3;
 4/5=5,16=3,69=1/1;
 5/5=2,38=5/2;
 7//1,2,3,16;
 1/18=20,19=15,26=3/3(-5);
 2/9=110/2;
 6/7=2,8=2,9=2,10=2,19=2,28=1/1;
 99/9=1/99;
 -------------------
 Title Card Required
 -------------------
 Symbolic Z-matrix:
 Charge =  0 Multiplicity = 1
 C                    -0.59366  -0.41063  -0.00009 
 C                    -1.91734   0.00391  -0.00003 
 C                    -2.86398  -1.05921  -0.00001 
 C                    -2.25936  -2.2846   -0.0001 
 S                    -0.53724  -2.16837  -0.00024 
 H                    -3.93604  -0.92509   0.00005 
 H                    -2.73094  -3.25516  -0.00012 
 C                     0.59366   0.41063  -0.00009 
 C                     1.91734  -0.00391  -0.00002 
 S                     0.53724   2.16837  -0.00025 
 C                     2.86398   1.05921  -0.00001 
 C                     2.25936   2.2846   -0.0001 
 H                     3.93604   0.92509   0.00006 
 H                     2.73094   3.25516  -0.00012 
 O                    -2.20249   1.33737   0.00001 
 O                     2.20249  -1.33737   0.00002 
 C                     3.56951  -1.7273    0.00052 
 H                     4.08546  -1.36398   0.89555 
 H                     3.57058  -2.81592   0.00067 
 H                     4.08605  -1.36423  -0.89427 
 C                    -3.56951   1.7273    0.00054 
 H                    -4.08544   1.36397   0.89557 
 H                    -3.57058   2.81592   0.00069 
 H                    -4.08607   1.36423  -0.89424 
 
 The following ModRedundant input section has been read:
 A       1       2      15 S  25 0.2500                                        
 

 GradGradGradGradGradGradGradGradGradGradGradGradGradGradGradGradGradGrad
 Berny optimization.
 Initialization pass.
                           ----------------------------
                           !    Initial Parameters    !
                           ! (Angstroms and Degrees)  !
 --------------------------                            --------------------------
 ! Name  Definition              Value          Derivative Info.                !
 --------------------------------------------------------------------------------
 ! R1    R(1,2)                  1.3871         estimate D2E/DX2                !
 ! R2    R(1,5)                  1.7586         estimate D2E/DX2                !
 ! R3    R(1,8)                  1.4437         estimate D2E/DX2                !
 ! R4    R(2,3)                  1.4235         estimate D2E/DX2                !
 ! R5    R(2,15)                 1.3636         estimate D2E/DX2                !
 ! R6    R(3,4)                  1.3664         estimate D2E/DX2                !
 ! R7    R(3,6)                  1.0804         estimate D2E/DX2                !
 ! R8    R(4,5)                  1.726          estimate D2E/DX2                !
 ! R9    R(4,7)                  1.0791         estimate D2E/DX2                !
 ! R10   R(8,9)                  1.3871         estimate D2E/DX2                !
 ! R11   R(8,10)                 1.7586         estimate D2E/DX2                !
 ! R12   R(9,11)                 1.4235         estimate D2E/DX2                !
 ! R13   R(9,16)                 1.3636         estimate D2E/DX2                !
 ! R14   R(10,12)                1.726          estimate D2E/DX2                !
 ! R15   R(11,12)                1.3664         estimate D2E/DX2                !
 ! R16   R(11,13)                1.0804         estimate D2E/DX2                !
 ! R17   R(12,14)                1.0791         estimate D2E/DX2                !
 ! R18   R(15,21)                1.4215         estimate D2E/DX2                !
 ! R19   R(16,17)                1.4215         estimate D2E/DX2                !
 ! R20   R(17,18)                1.0951         estimate D2E/DX2                !
 ! R21   R(17,19)                1.0886         estimate D2E/DX2                !
 ! R22   R(17,20)                1.0951         estimate D2E/DX2                !
 ! R23   R(21,22)                1.0951         estimate D2E/DX2                !
 ! R24   R(21,23)                1.0886         estimate D2E/DX2                !
 ! R25   R(21,24)                1.0951         estimate D2E/DX2                !
 ! A1    A(2,1,5)              109.228          estimate D2E/DX2                !
 ! A2    A(2,1,8)              127.9393         estimate D2E/DX2                !
 ! A3    A(5,1,8)              122.8328         estimate D2E/DX2                !
 ! A4    A(1,2,3)              114.2937         estimate D2E/DX2                !
 ! A5    A(1,2,15)             119.46           Scan                            !
 ! A6    A(3,2,15)             126.2463         estimate D2E/DX2                !
 ! A7    A(2,3,4)              112.0548         estimate D2E/DX2                !
 ! A8    A(2,3,6)              124.5521         estimate D2E/DX2                !
 ! A9    A(4,3,6)              123.3931         estimate D2E/DX2                !
 ! A10   A(3,4,5)              112.4009         estimate D2E/DX2                !
 ! A11   A(3,4,7)              127.8234         estimate D2E/DX2                !
 ! A12   A(5,4,7)              119.7757         estimate D2E/DX2                !
 ! A13   A(1,5,4)               92.0227         estimate D2E/DX2                !
 ! A14   A(1,8,9)              127.9393         estimate D2E/DX2                !
 ! A15   A(1,8,10)             122.8328         estimate D2E/DX2                !
 ! A16   A(9,8,10)             109.228          estimate D2E/DX2                !
 ! A17   A(8,9,11)             114.2937         estimate D2E/DX2                !
 ! A18   A(8,9,16)             119.46           estimate D2E/DX2                !
 ! A19   A(11,9,16)            126.2463         estimate D2E/DX2                !
 ! A20   A(8,10,12)             92.0227         estimate D2E/DX2                !
 ! A21   A(9,11,12)            112.0548         estimate D2E/DX2                !
 ! A22   A(9,11,13)            124.5521         estimate D2E/DX2                !
 ! A23   A(12,11,13)           123.3931         estimate D2E/DX2                !
 ! A24   A(10,12,11)           112.4009         estimate D2E/DX2                !
 ! A25   A(10,12,14)           119.7757         estimate D2E/DX2                !
 ! A26   A(11,12,14)           127.8234         estimate D2E/DX2                !
 ! A27   A(2,15,21)            117.9908         estimate D2E/DX2                !
 ! A28   A(9,16,17)            117.9908         estimate D2E/DX2                !
 ! A29   A(16,17,18)           111.2449         estimate D2E/DX2                !
 ! A30   A(16,17,19)           105.9768         estimate D2E/DX2                !
 ! A31   A(16,17,20)           111.2452         estimate D2E/DX2                !
 ! A32   A(18,17,19)           109.3408         estimate D2E/DX2                !
 ! A33   A(18,17,20)           109.6069         estimate D2E/DX2                !
 ! A34   A(19,17,20)           109.3403         estimate D2E/DX2                !
 ! A35   A(15,21,22)           111.2449         estimate D2E/DX2                !
 ! A36   A(15,21,23)           105.9768         estimate D2E/DX2                !
 ! A37   A(15,21,24)           111.2452         estimate D2E/DX2                !
 ! A38   A(22,21,23)           109.3409         estimate D2E/DX2                !
 ! A39   A(22,21,24)           109.6069         estimate D2E/DX2                !
 ! A40   A(23,21,24)           109.3402         estimate D2E/DX2                !
 ! D1    D(5,1,2,3)              0.0042         estimate D2E/DX2                !
 ! D2    D(5,1,2,15)          -179.9959         estimate D2E/DX2                !
 ! D3    D(8,1,2,3)           -179.9984         estimate D2E/DX2                !
 ! D4    D(8,1,2,15)             0.0015         estimate D2E/DX2                !
 ! D5    D(2,1,5,4)             -0.0042         estimate D2E/DX2                !
 ! D6    D(8,1,5,4)            179.9983         estimate D2E/DX2                !
 ! D7    D(2,1,8,9)            179.9937         estimate D2E/DX2                !
 ! D8    D(2,1,8,10)            -0.0091         estimate D2E/DX2                !
 ! D9    D(5,1,8,9)             -0.0093         estimate D2E/DX2                !
 ! D10   D(5,1,8,10)           179.9879         estimate D2E/DX2                !
 ! D11   D(1,2,3,4)             -0.0018         estimate D2E/DX2                !
 ! D12   D(1,2,3,6)            179.9988         estimate D2E/DX2                !
 ! D13   D(15,2,3,4)           179.9983         estimate D2E/DX2                !
 ! D14   D(15,2,3,6)            -0.0011         estimate D2E/DX2                !
 ! D15   D(1,2,15,21)         -179.9784         estimate D2E/DX2                !
 ! D16   D(3,2,15,21)            0.0215         estimate D2E/DX2                !
 ! D17   D(2,3,4,5)             -0.0015         estimate D2E/DX2                !
 ! D18   D(2,3,4,7)           -179.9988         estimate D2E/DX2                !
 ! D19   D(6,3,4,5)            179.9978         estimate D2E/DX2                !
 ! D20   D(6,3,4,7)              0.0006         estimate D2E/DX2                !
 ! D21   D(3,4,5,1)              0.0033         estimate D2E/DX2                !
 ! D22   D(7,4,5,1)           -179.9992         estimate D2E/DX2                !
 ! D23   D(1,8,9,11)          -179.9983         estimate D2E/DX2                !
 ! D24   D(1,8,9,16)             0.0014         estimate D2E/DX2                !
 ! D25   D(10,8,9,11)            0.0041         estimate D2E/DX2                !
 ! D26   D(10,8,9,16)         -179.9961         estimate D2E/DX2                !
 ! D27   D(1,8,10,12)          179.9982         estimate D2E/DX2                !
 ! D28   D(9,8,10,12)           -0.0042         estimate D2E/DX2                !
 ! D29   D(8,9,11,12)           -0.0018         estimate D2E/DX2                !
 ! D30   D(8,9,11,13)          179.9988         estimate D2E/DX2                !
 ! D31   D(16,9,11,12)         179.9985         estimate D2E/DX2                !
 ! D32   D(16,9,11,13)          -0.001          estimate D2E/DX2                !
 ! D33   D(8,9,16,17)         -179.9802         estimate D2E/DX2                !
 ! D34   D(11,9,16,17)           0.0196         estimate D2E/DX2                !
 ! D35   D(8,10,12,11)           0.0033         estimate D2E/DX2                !
 ! D36   D(8,10,12,14)        -179.9992         estimate D2E/DX2                !
 ! D37   D(9,11,12,10)          -0.0015         estimate D2E/DX2                !
 ! D38   D(9,11,12,14)        -179.9988         estimate D2E/DX2                !
 ! D39   D(13,11,12,10)        179.9979         estimate D2E/DX2                !
 ! D40   D(13,11,12,14)          0.0007         estimate D2E/DX2                !
 ! D41   D(2,15,21,22)          61.2425         estimate D2E/DX2                !
 ! D42   D(2,15,21,23)         179.9882         estimate D2E/DX2                !
 ! D43   D(2,15,21,24)         -61.2668         estimate D2E/DX2                !
 ! D44   D(9,16,17,18)          61.2435         estimate D2E/DX2                !
 ! D45   D(9,16,17,19)         179.9891         estimate D2E/DX2                !
 ! D46   D(9,16,17,20)         -61.2658         estimate D2E/DX2                !
 --------------------------------------------------------------------------------
 Trust Radius=3.00D-01 FncErr=1.00D-07 GrdErr=1.00D-06 EigMax=2.50D+02 EigMin=1.00D-04
 Number of optimizations in scan=  26
 Number of steps in this run=    121 maximum allowed number of steps=    144.
 GradGradGradGradGradGradGradGradGradGradGradGradGradGradGradGradGradGrad

                          Input orientation:                          
 ---------------------------------------------------------------------
 Center     Atomic      Atomic             Coordinates (Angstroms)
 Number     Number       Type             X           Y           Z
 ---------------------------------------------------------------------
      1          6           0       -0.593663   -0.410632   -0.000087
      2          6           0       -1.917339    0.003914   -0.000030
      3          6           0       -2.863983   -1.059207   -0.000012
      4          6           0       -2.259364   -2.284600   -0.000096
      5         16           0       -0.537240   -2.168368   -0.000240
      6          1           0       -3.936038   -0.925086    0.000049
      7          1           0       -2.730943   -3.255156   -0.000122
      8          6           0        0.593663    0.410632   -0.000087
      9          6           0        1.917339   -0.003914   -0.000023
     10         16           0        0.537240    2.168368   -0.000245
     11          6           0        2.863983    1.059207   -0.000005
     12          6           0        2.259364    2.284600   -0.000095
     13          1           0        3.936038    0.925086    0.000062
     14          1           0        2.730943    3.255156   -0.000122
     15          8           0       -2.202491    1.337369    0.000005
     16          8           0        2.202491   -1.337369    0.000021
     17          6           0        3.569508   -1.727296    0.000521
     18          1           0        4.085463   -1.363977    0.895548
     19          1           0        3.570583   -2.815916    0.000668
     20          1           0        4.086051   -1.364228   -0.894268
     21          6           0       -3.569508    1.727296    0.000536
     22          1           0       -4.085443    1.363973    0.895572
     23          1           0       -3.570583    2.815916    0.000686
     24          1           0       -4.086071    1.364232   -0.894244
 ---------------------------------------------------------------------
                    Distance matrix (angstroms):
                    1          2          3          4          5
     1  C    0.000000
     2  C    1.387071   0.000000
     3  C    2.361144   1.423503   0.000000
     4  C    2.507253   2.313931   1.366438   0.000000
     5  S    1.758641   2.573613   2.577590   1.726042   0.000000
     6  H    3.381735   2.222203   1.080412   2.158591   3.619058
     7  H    3.557989   3.359090   2.199975   1.079058   2.448151
     8  C    1.443682   2.543728   3.757092   3.924798   2.816058
     9  C    2.543728   3.834686   4.896395   4.758821   3.272586
    10  S    2.816058   3.272586   4.688876   5.258319   4.467862
    11  C    3.757092   4.896395   6.107149   6.117984   4.688876
    12  C    3.924798   4.758821   6.117984   6.426235   5.258319
    13  H    4.722535   5.925418   7.083622   6.977470   5.438720
    14  H    4.948839   5.672486   7.065191   7.456008   6.332111
    15  O    2.375676   1.363603   2.486192   3.622415   3.881141
    16  O    2.945729   4.332671   5.074104   4.561293   2.862985
    17  C    4.366417   5.753484   6.468087   5.855454   4.130366
    18  H    4.858523   6.221480   7.013538   6.473527   4.776909
    19  H    4.808985   6.169986   6.670057   5.854108   4.158549
    20  H    4.858871   6.221910   7.013965   6.473864   4.777107
    21  C    3.664204   2.387406   2.874433   4.220401   4.936684
    22  H    4.017954   2.711556   2.857593   4.177185   5.086222
    23  H    4.390064   3.261989   3.939018   5.266361   5.834746
    24  H    4.018280   2.711730   2.857658   4.177360   5.086522
                    6          7          8          9         10
     6  H    0.000000
     7  H    2.623258   0.000000
     8  C    4.722535   4.948839   0.000000
     9  C    5.925418   5.672486   1.387071   0.000000
    10  S    5.438720   6.332111   1.758641   2.573613   0.000000
    11  C    7.083622   7.065191   2.361144   1.423503   2.577590
    12  C    6.977470   7.456008   2.507253   2.313931   1.726042
    13  H    8.086576   7.869121   3.381735   2.222203   3.619058
    14  H    7.869121   8.498021   3.557989   3.359090   2.448151
    15  O    2.850243   4.622829   2.945729   4.332671   2.862985
    16  O    6.152359   5.293078   2.375676   1.363603   3.881141
    17  C    7.548295   6.483058   3.664204   2.387406   4.936684
    18  H    8.083256   7.130370   4.017968   2.711564   5.086236
    19  H    7.741098   6.316816   4.390064   3.261989   5.834746
    20  H    8.083722   7.130674   4.018266   2.711723   5.086509
    21  C    2.677587   5.052526   4.366417   5.753484   4.130366
    22  H    2.462534   4.896253   4.858508   6.221463   4.776896
    23  H    3.758810   6.128859   4.808985   6.169986   4.158549
    24  H    2.462366   4.896384   4.858887   6.221928   4.777120
                   11         12         13         14         15
    11  C    0.000000
    12  C    1.366438   0.000000
    13  H    1.080412   2.158591   0.000000
    14  H    2.199975   1.079058   2.623258   0.000000
    15  O    5.074104   4.561293   6.152359   5.293078   0.000000
    16  O    2.486192   3.622415   2.850243   4.622829   5.153454
    17  C    2.874433   4.220401   2.677587   5.052526   6.535147
    18  H    2.857595   4.177191   2.462526   4.896258   6.902002
    19  H    3.939018   5.266361   3.758810   6.128859   7.111832
    20  H    2.857655   4.177353   2.462375   4.896379   6.902471
    21  C    6.468087   5.855454   7.548295   6.483058   1.421541
    22  H    7.013520   6.473511   8.083237   7.130355   2.085247
    23  H    6.670057   5.854108   7.741098   6.316816   2.014393
    24  H    7.013983   6.473880   8.083741   7.130689   2.085252
                   16         17         18         19         20
    16  O    0.000000
    17  C    1.421541   0.000000
    18  H    2.085248   1.095118   0.000000
    19  H    2.014393   1.088621   1.781583   0.000000
    20  H    2.085251   1.095118   1.789816   1.781577   0.000000
    21  C    6.535147   7.930937   8.303951   8.462959   8.304564
    22  H    6.901983   8.303935   8.614257   8.768527   8.798859
    23  H    7.111832   8.462959   8.768542   9.094712   8.769184
    24  H    6.902490   8.304579   8.798889   8.769199   8.615571
                   21         22         23         24
    21  C    0.000000
    22  H    1.095117   0.000000
    23  H    1.088621   1.781584   0.000000
    24  H    1.095118   1.789816   1.781576   0.000000
 Stoichiometry    C10H10O2S2
 Framework group  C1[X(C10H10O2S2)]
 Deg. of freedom    66
 Full point group                 C1      NOp   1
 Largest Abelian subgroup         C1      NOp   1
 Largest concise Abelian subgroup C1      NOp   1
                         Standard orientation:                         
 ---------------------------------------------------------------------
 Center     Atomic      Atomic             Coordinates (Angstroms)
 Number     Number       Type             X           Y           Z
 ---------------------------------------------------------------------
      1          6           0       -0.593663   -0.410632   -0.000087
      2          6           0       -1.917339    0.003914   -0.000030
      3          6           0       -2.863983   -1.059207   -0.000012
      4          6           0       -2.259364   -2.284600   -0.000096
      5         16           0       -0.537240   -2.168368   -0.000240
      6          1           0       -3.936038   -0.925086    0.000049
      7          1           0       -2.730943   -3.255156   -0.000122
      8          6           0        0.593663    0.410632   -0.000087
      9          6           0        1.917339   -0.003914   -0.000023
     10         16           0        0.537240    2.168368   -0.000245
     11          6           0        2.863983    1.059207   -0.000005
     12          6           0        2.259364    2.284600   -0.000095
     13          1           0        3.936038    0.925086    0.000062
     14          1           0        2.730943    3.255156   -0.000122
     15          8           0       -2.202491    1.337369    0.000005
     16          8           0        2.202491   -1.337369    0.000021
     17          6           0        3.569508   -1.727296    0.000521
     18          1           0        4.085463   -1.363977    0.895548
     19          1           0        3.570583   -2.815916    0.000668
     20          1           0        4.086051   -1.364228   -0.894268
     21          6           0       -3.569508    1.727296    0.000536
     22          1           0       -4.085443    1.363973    0.895572
     23          1           0       -3.570583    2.815916    0.000686
     24          1           0       -4.086071    1.364232   -0.894244
 ---------------------------------------------------------------------
 Rotational constants (GHZ):           0.7961509           0.4865484           0.3031625
 Standard basis: 6-311+G(d,p) (5D, 7F)
 There are   398 symmetry adapted cartesian basis functions of A   symmetry.
 There are   384 symmetry adapted basis functions of A   symmetry.
   384 basis functions,   612 primitive gaussians,   398 cartesian basis functions
    59 alpha electrons       59 beta electrons
       nuclear repulsion energy      1105.8030505921 Hartrees.
 NAtoms=   24 NActive=   24 NUniq=   24 SFac= 1.00D+00 NAtFMM=   60 NAOKFM=F Big=F
 Integral buffers will be    131072 words long.
 Raffenetti 2 integral format.
 Two-electron integral symmetry is turned on.
 One-electron integrals computed using PRISM.
 NBasis=   384 RedAO= T EigKep=  1.04D-06  NBF=   384
 NBsUse=   382 1.00D-06 EigRej=  3.64D-07 NBFU=   382
 ExpMin= 4.05D-02 ExpMax= 9.34D+04 ExpMxC= 3.17D+03 IAcc=3 IRadAn=         5 AccDes= 0.00D+00
 Harris functional with IExCor=  402 and IRadAn=       5 diagonalized for initial guess.
 HarFok:  IExCor=  402 AccDes= 0.00D+00 IRadAn=         5 IDoV= 1 UseB2=F ITyADJ=14
 ICtDFT=  3500011 ScaDFX=  1.000000  1.000000  1.000000  1.000000
 FoFCou: FMM=F IPFlag=           0 FMFlag=      100000 FMFlg1=           0
         NFxFlg=           0 DoJE=T BraDBF=F KetDBF=T FulRan=T
         wScrn=  0.000000 ICntrl=       500 IOpCl=  0 I1Cent=   200000004 NGrid=           0
         NMat0=    1 NMatS0=      1 NMatT0=    0 NMatD0=    1 NMtDS0=    0 NMtDT0=    0
 Petite list used in FoFCou.
 Requested convergence on RMS density matrix=1.00D-08 within 128 cycles.
 Requested convergence on MAX density matrix=1.00D-06.
 Requested convergence on             energy=1.00D-06.
 No special actions if energy rises.
 SCF Done:  E(RB3LYP) =  -1334.05172732     A.U. after   14 cycles
            NFock= 14  Conv=0.55D-08     -V/T= 2.0025

 **********************************************************************

            Population analysis using the SCF density.

 **********************************************************************

 Orbital symmetries:
       Occupied  (A) (A) (A) (A) (A) (A) (A) (A) (A) (A) (A) (A)
                 (A) (A) (A) (A) (A) (A) (A) (A) (A) (A) (A) (A)
                 (A) (A) (A) (A) (A) (A) (A) (A) (A) (A) (A) (A)
                 (A) (A) (A) (A) (A) (A) (A) (A) (A) (A) (A) (A)
                 (A) (A) (A) (A) (A) (A) (A) (A) (A) (A) (A)
       Virtual   (A) (A) (A) (A) (A) (A) (A) (A) (A) (A) (A) (A)
                 (A) (A) (A) (A) (A) (A) (A) (A) (A) (A) (A) (A)
                 (A) (A) (A) (A) (A) (A) (A) (A) (A) (A) (A) (A)
                 (A) (A) (A) (A) (A) (A) (A) (A) (A) (A) (A) (A)
                 (A) (A) (A) (A) (A) (A) (A) (A) (A) (A) (A) (A)
                 (A) (A) (A) (A) (A) (A) (A) (A) (A) (A) (A) (A)
                 (A) (A) (A) (A) (A) (A) (A) (A) (A) (A) (A) (A)
                 (A) (A) (A) (A) (A) (A) (A) (A) (A) (A) (A) (A)
                 (A) (A) (A) (A) (A) (A) (A) (A) (A) (A) (A) (A)
                 (A) (A) (A) (A) (A) (A) (A) (A) (A) (A) (A) (A)
                 (A) (A) (A) (A) (A) (A) (A) (A) (A) (A) (A) (A)
                 (A) (A) (A) (A) (A) (A) (A) (A) (A) (A) (A) (A)
                 (A) (A) (A) (A) (A) (A) (A) (A) (A) (A) (A) (A)
                 (A) (A) (A) (A) (A) (A) (A) (A) (A) (A) (A) (A)
                 (A) (A) (A) (A) (A) (A) (A) (A) (A) (A) (A) (A)
                 (A) (A) (A) (A) (A) (A) (A) (A) (A) (A) (A) (A)
                 (A) (A) (A) (A) (A) (A) (A) (A) (A) (A) (A) (A)
                 (A) (A) (A) (A) (A) (A) (A) (A) (A) (A) (A) (A)
                 (A) (A) (A) (A) (A) (A) (A) (A) (A) (A) (A) (A)
                 (A) (A) (A) (A) (A) (A) (A) (A) (A) (A) (A) (A)
                 (A) (A) (A) (A) (A) (A) (A) (A) (A) (A) (A) (A)
                 (A) (A) (A) (A) (A) (A) (A) (A) (A) (A) (A) (A)
                 (A) (A) (A) (A) (A) (A) (A) (A) (A) (A) (A) (A)
                 (A) (A) (A) (A) (A) (A) (A) (A) (A) (A) (A) (A)
                 (A) (A) (A) (A) (A) (A) (A) (A) (A) (A) (A) (A)
                 (A) (A) (A) (A) (A) (A) (A) (A) (A) (A) (A) (A)
                 (A) (A) (A) (A) (A) (A) (A) (A) (A) (A) (A)
 The electronic state is 1-A.
 Alpha  occ. eigenvalues --  -88.87085 -88.87085 -19.15803 -19.15803 -10.23220
 Alpha  occ. eigenvalues --  -10.23219 -10.22946 -10.22946 -10.20404 -10.20366
 Alpha  occ. eigenvalues --  -10.19557 -10.19557 -10.17728 -10.17728  -7.95642
 Alpha  occ. eigenvalues --   -7.95642  -5.91951  -5.91951  -5.91563  -5.91563
 Alpha  occ. eigenvalues --   -5.91212  -5.91212  -1.07364  -1.07291  -0.88792
 Alpha  occ. eigenvalues --   -0.87018  -0.77168  -0.75492  -0.74078  -0.71769
 Alpha  occ. eigenvalues --   -0.69446  -0.67351  -0.59703  -0.58299  -0.55295
 Alpha  occ. eigenvalues --   -0.55149  -0.53651  -0.48434  -0.47734  -0.47496
 Alpha  occ. eigenvalues --   -0.47280  -0.45751  -0.44468  -0.44167  -0.41423
 Alpha  occ. eigenvalues --   -0.40784  -0.40525  -0.37918  -0.37569  -0.36265
 Alpha  occ. eigenvalues --   -0.35257  -0.33241  -0.32721  -0.32596  -0.32579
 Alpha  occ. eigenvalues --   -0.27462  -0.23810  -0.23511  -0.18419
 Alpha virt. eigenvalues --   -0.04011  -0.00033   0.00369   0.00606   0.01018
 Alpha virt. eigenvalues --    0.01478   0.02169   0.02882   0.02973   0.03679
 Alpha virt. eigenvalues --    0.03931   0.05056   0.05185   0.05216   0.05740
 Alpha virt. eigenvalues --    0.06221   0.06285   0.07092   0.07859   0.08019
 Alpha virt. eigenvalues --    0.08259   0.08910   0.09284   0.09327   0.09533
 Alpha virt. eigenvalues --    0.11595   0.12063   0.12143   0.12258   0.12405
 Alpha virt. eigenvalues --    0.13181   0.13736   0.14076   0.14488   0.15448
 Alpha virt. eigenvalues --    0.15639   0.15942   0.16086   0.16328   0.17114
 Alpha virt. eigenvalues --    0.17770   0.17985   0.18555   0.18913   0.19016
 Alpha virt. eigenvalues --    0.19571   0.19759   0.20186   0.20509   0.20969
 Alpha virt. eigenvalues --    0.21007   0.21743   0.21977   0.22063   0.23148
 Alpha virt. eigenvalues --    0.23184   0.23681   0.24696   0.25126   0.25763
 Alpha virt. eigenvalues --    0.26420   0.26648   0.26885   0.27809   0.27811
 Alpha virt. eigenvalues --    0.28161   0.28609   0.30320   0.30353   0.30559
 Alpha virt. eigenvalues --    0.31820   0.33228   0.34983   0.35283   0.35760
 Alpha virt. eigenvalues --    0.35832   0.36136   0.36805   0.37202   0.39094
 Alpha virt. eigenvalues --    0.39272   0.43163   0.43190   0.43684   0.44491
 Alpha virt. eigenvalues --    0.45049   0.45232   0.46401   0.47309   0.49520
 Alpha virt. eigenvalues --    0.49726   0.50708   0.51021   0.53046   0.54262
 Alpha virt. eigenvalues --    0.55564   0.55951   0.56189   0.57108   0.57249
 Alpha virt. eigenvalues --    0.58266   0.58437   0.60853   0.61827   0.62134
 Alpha virt. eigenvalues --    0.62541   0.63382   0.65066   0.65259   0.65686
 Alpha virt. eigenvalues --    0.66402   0.67267   0.68522   0.70691   0.71779
 Alpha virt. eigenvalues --    0.72346   0.73138   0.74326   0.75599   0.75626
 Alpha virt. eigenvalues --    0.75726   0.76228   0.78417   0.78509   0.78770
 Alpha virt. eigenvalues --    0.79465   0.81831   0.82790   0.83052   0.83865
 Alpha virt. eigenvalues --    0.86286   0.86776   0.86781   0.90255   0.91641
 Alpha virt. eigenvalues --    0.92139   0.92640   0.95353   0.96574   0.97429
 Alpha virt. eigenvalues --    1.00115   1.00368   1.01155   1.01875   1.02092
 Alpha virt. eigenvalues --    1.02627   1.05143   1.05277   1.05597   1.07375
 Alpha virt. eigenvalues --    1.07841   1.08548   1.08559   1.08861   1.10864
 Alpha virt. eigenvalues --    1.12635   1.16488   1.18194   1.22386   1.25149
 Alpha virt. eigenvalues --    1.25622   1.26344   1.31272   1.32055   1.34346
 Alpha virt. eigenvalues --    1.36328   1.36577   1.40571   1.41058   1.42927
 Alpha virt. eigenvalues --    1.42971   1.44054   1.45644   1.46192   1.48424
 Alpha virt. eigenvalues --    1.53620   1.54111   1.55141   1.55390   1.56051
 Alpha virt. eigenvalues --    1.61079   1.61392   1.62114   1.63166   1.64487
 Alpha virt. eigenvalues --    1.64549   1.65043   1.67436   1.68726   1.69927
 Alpha virt. eigenvalues --    1.69938   1.70339   1.73856   1.76170   1.76545
 Alpha virt. eigenvalues --    1.77841   1.78741   1.79188   1.80566   1.81232
 Alpha virt. eigenvalues --    1.82320   1.84814   1.86820   1.87349   1.88251
 Alpha virt. eigenvalues --    1.91852   1.94848   1.95340   1.99882   2.01534
 Alpha virt. eigenvalues --    2.01900   2.02784   2.04088   2.05516   2.06918
 Alpha virt. eigenvalues --    2.07479   2.08156   2.09530   2.11321   2.12405
 Alpha virt. eigenvalues --    2.13644   2.13680   2.14293   2.16236   2.16620
 Alpha virt. eigenvalues --    2.19218   2.20494   2.21590   2.23334   2.40111
 Alpha virt. eigenvalues --    2.42351   2.43637   2.43786   2.46113   2.46468
 Alpha virt. eigenvalues --    2.47154   2.49792   2.50653   2.51776   2.52303
 Alpha virt. eigenvalues --    2.54600   2.55294   2.57658   2.61314   2.64795
 Alpha virt. eigenvalues --    2.66498   2.67537   2.69319   2.69913   2.73550
 Alpha virt. eigenvalues --    2.73928   2.76486   2.78022   2.78944   2.79272
 Alpha virt. eigenvalues --    2.84534   2.84979   2.86216   2.92503   2.96166
 Alpha virt. eigenvalues --    2.99271   3.00458   3.01393   3.04383   3.04575
 Alpha virt. eigenvalues --    3.08426   3.08855   3.14306   3.16452   3.21229
 Alpha virt. eigenvalues --    3.23804   3.23951   3.24560   3.30265   3.31412
 Alpha virt. eigenvalues --    3.34094   3.35348   3.41181   3.45659   3.47516
 Alpha virt. eigenvalues --    3.52284   3.56830   3.75554   3.77138   3.77266
 Alpha virt. eigenvalues --    3.82275   3.85041   4.01490   4.07481   4.09992
 Alpha virt. eigenvalues --    4.12409   4.14739   4.23180   4.30706   4.60515
 Alpha virt. eigenvalues --    5.01537   5.02478   5.42867   5.43312   5.76333
 Alpha virt. eigenvalues --    5.80962   8.02524   8.03374  17.29255  17.30817
 Alpha virt. eigenvalues --   17.48610  17.51067  17.54948  17.58853  23.52784
 Alpha virt. eigenvalues --   23.73032  23.82193  23.86012  23.90925  23.91906
 Alpha virt. eigenvalues --   24.04982  24.05170  24.16100  24.16565  49.96630
 Alpha virt. eigenvalues --   49.97789 189.19435 189.20612
          Condensed to atoms (all electrons):
               1          2          3          4          5          6
     1  C    9.199461   1.035350  -1.487149  -0.207149  -0.461179   0.010345
     2  C    1.035350   9.552821  -2.733852   0.114641   0.327908  -0.131590
     3  C   -1.487149  -2.733852  11.127858  -0.200119   0.056400   0.456880
     4  C   -0.207149   0.114641  -0.200119   6.044727   0.026751   0.014909
     5  S   -0.461179   0.327908   0.056400   0.026751  17.270019   0.013520
     6  H    0.010345  -0.131590   0.456880   0.014909   0.013520   0.533945
     7  H    0.030901  -0.073700   0.077164   0.326147  -0.016341  -0.005284
     8  C    0.135527  -1.284126  -0.595606   0.078767  -0.730154  -0.004158
     9  C   -1.284125  -0.626316   0.179244  -0.061229  -0.405920   0.001397
    10  S   -0.730154  -0.405920  -0.058312   0.056143   0.125900  -0.001625
    11  C   -0.595605   0.179244  -0.110412   0.017791  -0.058312   0.000033
    12  C    0.078767  -0.061229   0.017791  -0.009681   0.056143   0.000075
    13  H   -0.004158   0.001397   0.000033   0.000075  -0.001625   0.000000
    14  H    0.006986   0.006616   0.000287   0.000026  -0.000856   0.000000
    15  O   -0.187946   0.356554  -0.099952   0.045882   0.046068  -0.011879
    16  O   -0.254976  -0.048540  -0.006257   0.010610  -0.020630   0.000031
    17  C   -0.137571  -0.055967   0.003030   0.003136  -0.017105  -0.000011
    18  H   -0.002123   0.000828   0.000119  -0.000413  -0.002795   0.000000
    19  H    0.009293   0.000580  -0.000162   0.000887  -0.000178   0.000000
    20  H   -0.002221   0.000823   0.000121  -0.000415  -0.002785   0.000000
    21  C    0.072294   0.095396  -0.240468  -0.035810   0.059394  -0.002579
    22  H   -0.006692  -0.049363   0.052400   0.000833   0.000480  -0.000618
    23  H    0.000978   0.031098  -0.013579   0.000425  -0.000567   0.000256
    24  H   -0.006785  -0.049335   0.052547   0.000894   0.000478  -0.000617
               7          8          9         10         11         12
     1  C    0.030901   0.135527  -1.284125  -0.730154  -0.595605   0.078767
     2  C   -0.073700  -1.284126  -0.626316  -0.405920   0.179244  -0.061229
     3  C    0.077164  -0.595606   0.179244  -0.058312  -0.110412   0.017791
     4  C    0.326147   0.078767  -0.061229   0.056143   0.017791  -0.009681
     5  S   -0.016341  -0.730154  -0.405920   0.125900  -0.058312   0.056143
     6  H   -0.005284  -0.004158   0.001397  -0.001625   0.000033   0.000075
     7  H    0.492360   0.006986   0.006616  -0.000856   0.000287   0.000026
     8  C    0.006986   9.199461   1.035350  -0.461179  -1.487149  -0.207149
     9  C    0.006616   1.035350   9.552820   0.327908  -2.733852   0.114641
    10  S   -0.000856  -0.461179   0.327908  17.270020   0.056400   0.026751
    11  C    0.000287  -1.487149  -2.733852   0.056400  11.127858  -0.200120
    12  C    0.000026  -0.207149   0.114641   0.026751  -0.200120   6.044727
    13  H    0.000000   0.010345  -0.131590   0.013520   0.456880   0.014909
    14  H    0.000000   0.030901  -0.073700  -0.016341   0.077164   0.326147
    15  O   -0.000370  -0.254976  -0.048540  -0.020630  -0.006257   0.010610
    16  O   -0.000019  -0.187946   0.356554   0.046068  -0.099952   0.045882
    17  C   -0.000063   0.072294   0.095396   0.059394  -0.240468  -0.035810
    18  H    0.000000  -0.006696  -0.049362   0.000480   0.052406   0.000835
    19  H   -0.000001   0.000978   0.031098  -0.000567  -0.013579   0.000425
    20  H    0.000000  -0.006782  -0.049336   0.000478   0.052540   0.000892
    21  C    0.000694  -0.137571  -0.055967  -0.017105   0.003030   0.003136
    22  H    0.000035  -0.002119   0.000828  -0.002795   0.000119  -0.000413
    23  H   -0.000001   0.009293   0.000580  -0.000178  -0.000162   0.000887
    24  H    0.000035  -0.002224   0.000823  -0.002785   0.000121  -0.000415
              13         14         15         16         17         18
     1  C   -0.004158   0.006986  -0.187946  -0.254976  -0.137571  -0.002123
     2  C    0.001397   0.006616   0.356554  -0.048540  -0.055967   0.000828
     3  C    0.000033   0.000287  -0.099952  -0.006257   0.003030   0.000119
     4  C    0.000075   0.000026   0.045882   0.010610   0.003136  -0.000413
     5  S   -0.001625  -0.000856   0.046068  -0.020630  -0.017105  -0.002795
     6  H    0.000000   0.000000  -0.011879   0.000031  -0.000011   0.000000
     7  H    0.000000   0.000000  -0.000370  -0.000019  -0.000063   0.000000
     8  C    0.010345   0.030901  -0.254976  -0.187946   0.072294  -0.006696
     9  C   -0.131590  -0.073700  -0.048540   0.356554   0.095396  -0.049362
    10  S    0.013520  -0.016341  -0.020630   0.046068   0.059394   0.000480
    11  C    0.456880   0.077164  -0.006257  -0.099952  -0.240468   0.052406
    12  C    0.014909   0.326147   0.010610   0.045882  -0.035810   0.000835
    13  H    0.533945  -0.005284   0.000031  -0.011879  -0.002579  -0.000618
    14  H   -0.005284   0.492360  -0.000019  -0.000370   0.000694   0.000035
    15  O    0.000031  -0.000019   8.252643  -0.001370  -0.000719   0.000000
    16  O   -0.011879  -0.000370  -0.001370   8.252643   0.193417  -0.044343
    17  C   -0.002579   0.000694  -0.000719   0.193417   5.062479   0.418826
    18  H   -0.000618   0.000035   0.000000  -0.044343   0.418826   0.570128
    19  H    0.000256  -0.000001  -0.000002  -0.058492   0.399963  -0.028345
    20  H   -0.000617   0.000035  -0.000000  -0.044400   0.418795  -0.050535
    21  C   -0.000011  -0.000063   0.193417  -0.000719  -0.001113  -0.000000
    22  H    0.000000   0.000000  -0.044341   0.000000  -0.000000  -0.000000
    23  H    0.000000  -0.000001  -0.058492  -0.000002  -0.000000   0.000000
    24  H    0.000000   0.000000  -0.044403  -0.000000  -0.000000   0.000000
              19         20         21         22         23         24
     1  C    0.009293  -0.002221   0.072294  -0.006692   0.000978  -0.006785
     2  C    0.000580   0.000823   0.095396  -0.049363   0.031098  -0.049335
     3  C   -0.000162   0.000121  -0.240468   0.052400  -0.013579   0.052547
     4  C    0.000887  -0.000415  -0.035810   0.000833   0.000425   0.000894
     5  S   -0.000178  -0.002785   0.059394   0.000480  -0.000567   0.000478
     6  H    0.000000   0.000000  -0.002579  -0.000618   0.000256  -0.000617
     7  H   -0.000001   0.000000   0.000694   0.000035  -0.000001   0.000035
     8  C    0.000978  -0.006782  -0.137571  -0.002119   0.009293  -0.002224
     9  C    0.031098  -0.049336  -0.055967   0.000828   0.000580   0.000823
    10  S   -0.000567   0.000478  -0.017105  -0.002795  -0.000178  -0.002785
    11  C   -0.013579   0.052540   0.003030   0.000119  -0.000162   0.000121
    12  C    0.000425   0.000892   0.003136  -0.000413   0.000887  -0.000415
    13  H    0.000256  -0.000617  -0.000011   0.000000   0.000000   0.000000
    14  H   -0.000001   0.000035  -0.000063   0.000000  -0.000001   0.000000
    15  O   -0.000002  -0.000000   0.193417  -0.044341  -0.058492  -0.044403
    16  O   -0.058492  -0.044400  -0.000719   0.000000  -0.000002  -0.000000
    17  C    0.399963   0.418795  -0.001113  -0.000000  -0.000000  -0.000000
    18  H   -0.028345  -0.050535  -0.000000  -0.000000   0.000000   0.000000
    19  H    0.524518  -0.028345  -0.000000   0.000000  -0.000000   0.000000
    20  H   -0.028345   0.570191  -0.000000   0.000000   0.000000  -0.000000
    21  C   -0.000000  -0.000000   5.062479   0.418828   0.399963   0.418794
    22  H    0.000000   0.000000   0.418828   0.570125  -0.028345  -0.050535
    23  H   -0.000000   0.000000   0.399963  -0.028345   0.524518  -0.028345
    24  H    0.000000  -0.000000   0.418794  -0.050535  -0.028345   0.570194
 Mulliken charges:
               1
     1  C    0.787930
     2  C   -0.183317
     3  C   -0.478005
     4  C   -0.227827
     5  S   -0.264617
     6  H    0.126971
     7  H    0.155384
     8  C    0.787930
     9  C   -0.183317
    10  S   -0.264617
    11  C   -0.478005
    12  C   -0.227827
    13  H    0.126971
    14  H    0.155384
    15  O   -0.125313
    16  O   -0.125313
    17  C   -0.236016
    18  H    0.141573
    19  H    0.161675
    20  H    0.141561
    21  C   -0.236016
    22  H    0.141573
    23  H    0.161675
    24  H    0.141560
 Sum of Mulliken charges =  -0.00000
 Mulliken charges with hydrogens summed into heavy atoms:
               1
     1  C    0.787930
     2  C   -0.183317
     3  C   -0.351034
     4  C   -0.072443
     5  S   -0.264617
     8  C    0.787930
     9  C   -0.183317
    10  S   -0.264617
    11  C   -0.351034
    12  C   -0.072443
    15  O   -0.125313
    16  O   -0.125313
    17  C    0.208793
    21  C    0.208793
 Electronic spatial extent (au):  <R**2>=           3511.2191
 Charge=             -0.0000 electrons
 Dipole moment (field-independent basis, Debye):
    X=             -0.0000    Y=              0.0000    Z=              0.0012  Tot=              0.0012
 Quadrupole moment (field-independent basis, Debye-Ang):
   XX=            -71.2813   YY=            -90.3187   ZZ=           -102.0266
   XY=             -3.2563   XZ=             -0.0001   YZ=              0.0001
 Traceless Quadrupole moment (field-independent basis, Debye-Ang):
   XX=             16.5942   YY=             -2.4431   ZZ=            -14.1511
   XY=             -3.2563   XZ=             -0.0001   YZ=              0.0001
 Octapole moment (field-independent basis, Debye-Ang**2):
  XXX=             -0.0000  YYY=              0.0000  ZZZ=              0.0032  XYY=             -0.0000
  XXY=              0.0000  XXZ=              0.0140  XZZ=             -0.0000  YZZ=              0.0000
  YYZ=              0.0027  XYZ=             -0.0087
 Hexadecapole moment (field-independent basis, Debye-Ang**3):
 XXXX=          -2530.5308 YYYY=          -1596.2492 ZZZZ=           -137.0370 XXXY=           -123.0187
 XXXZ=              0.0002 YYYX=             -2.0021 YYYZ=              0.0000 ZZZX=              0.0000
 ZZZY=             -0.0000 XXYY=           -662.3257 XXZZ=           -534.9816 YYZZ=           -339.4479
 XXYZ=              0.0005 YYXZ=             -0.0003 ZZXY=            -31.1470
 N-N= 1.105803050592D+03 E-N=-5.359568633674D+03  KE= 1.330742586441D+03
 Calling FoFJK, ICntrl=      2127 FMM=F ISym2X=0 I1Cent= 0 IOpClX= 0 NMat=1 NMatS=1 NMatT=0.
 ***** Axes restored to original set *****
 -------------------------------------------------------------------
 Center     Atomic                   Forces (Hartrees/Bohr)
 Number     Number              X              Y              Z
 -------------------------------------------------------------------
      1        6          -0.000127670    0.000290009   -0.000005254
      2        6           0.000245204   -0.000064146    0.000003465
      3        6          -0.000241756   -0.000059380   -0.000000335
      4        6           0.000064772    0.000013826   -0.000003870
      5       16           0.000146026   -0.000089092    0.000005016
      6        1           0.000066417    0.000027435    0.000000437
      7        1          -0.000006279    0.000019076    0.000000308
      8        6           0.000127670   -0.000290009   -0.000005142
      9        6          -0.000245204    0.000064146    0.000003468
     10       16          -0.000146026    0.000089091    0.000004998
     11        6           0.000241757    0.000059380   -0.000000261
     12        6          -0.000064773   -0.000013826   -0.000003880
     13        1          -0.000066417   -0.000027435    0.000000397
     14        1           0.000006279   -0.000019076    0.000000295
     15        8           0.000015990    0.000023973    0.000000562
     16        8          -0.000015997   -0.000023971    0.000000514
     17        6           0.000005103   -0.000003180    0.000000232
     18        1           0.000027798    0.000040116    0.000104688
     19        1          -0.000000976   -0.000138922   -0.000000085
     20        1           0.000028134    0.000040854   -0.000105196
     21        6          -0.000005102    0.000003177   -0.000000581
     22        1          -0.000028030   -0.000040162    0.000105038
     23        1           0.000000976    0.000138922    0.000000024
     24        1          -0.000027896   -0.000040806   -0.000104838
 -------------------------------------------------------------------
 Cartesian Forces:  Max     0.000290009 RMS     0.000093236

 GradGradGradGradGradGradGradGradGradGradGradGradGradGradGradGradGradGrad
 Berny optimization.
 FormGI is forming the generalized inverse of G from B-inverse, IUseBI=4.
 Internal  Forces:  Max     0.000211810 RMS     0.000056494
 Search for a local minimum.
 Step number   1 out of a maximum of  121 on scan point     1 out of    26
 All quantities printed in internal units (Hartrees-Bohrs-Radians)
 Mixed Optimization -- En-DIIS/RFO-DIIS
 Second derivative matrix not updated -- first step.
 ITU=  0
     Eigenvalues ---    0.01407   0.01407   0.01511   0.01609   0.01609
     Eigenvalues ---    0.01688   0.01688   0.01987   0.01987   0.02100
     Eigenvalues ---    0.02100   0.02113   0.02113   0.02173   0.02173
     Eigenvalues ---    0.02275   0.02275   0.10067   0.10067   0.10655
     Eigenvalues ---    0.10655   0.16000   0.16000   0.16000   0.16000
     Eigenvalues ---    0.16000   0.16000   0.16000   0.16000   0.16000
     Eigenvalues ---    0.16000   0.22532   0.22584   0.24749   0.24777
     Eigenvalues ---    0.25000   0.25000   0.25000   0.25000   0.25000
     Eigenvalues ---    0.29140   0.29143   0.32099   0.32171   0.34228
     Eigenvalues ---    0.34228   0.34228   0.34228   0.34973   0.34973
     Eigenvalues ---    0.35945   0.35945   0.36108   0.36108   0.39085
     Eigenvalues ---    0.40679   0.40753   0.42229   0.42229   0.45483
     Eigenvalues ---    0.45570   0.50101   0.50101   0.52226   0.52226
     Eigenvalues --- 1000.000001000.000001000.000001000.000001000.00000
     Eigenvalues --- 1000.000001000.000001000.000001000.000001000.00000
     Eigenvalues --- 1000.000001000.000001000.000001000.000001000.00000
     Eigenvalues --- 1000.000001000.000001000.000001000.000001000.00000
     Eigenvalues --- 1000.000001000.000001000.000001000.000001000.00000
     Eigenvalues --- 1000.000001000.000001000.000001000.000001000.00000
     Eigenvalues --- 1000.000001000.000001000.000001000.000001000.00000
     Eigenvalues --- 1000.000001000.000001000.000001000.000001000.00000
     Eigenvalues --- 1000.000001000.000001000.000001000.000001000.00000
     Eigenvalues --- 1000.00000
 RFO step:  Lambda=-1.11944392D-06 EMin= 1.40683420D-02
 Linear search not attempted -- first point.
 Iteration  1 RMS(Cart)=  0.00046309 RMS(Int)=  0.00000005
 Iteration  2 RMS(Cart)=  0.00000008 RMS(Int)=  0.00000001
 Iteration  1 RMS(Cart)=  0.00000000 RMS(Int)=  0.00000000
 Variable       Old X    -DE/DX   Delta X   Delta X   Delta X     New X
                                 (Linear)    (Quad)   (Total)
    R1        2.62118  -0.00014   0.00000  -0.00029  -0.00029   2.62089
    R2        3.32335   0.00005   0.00000   0.00014   0.00014   3.32349
    R3        2.72816  -0.00021   0.00000  -0.00054  -0.00054   2.72762
    R4        2.69003   0.00008   0.00000   0.00019   0.00019   2.69022
    R5        2.57684   0.00009   0.00000   0.00018   0.00018   2.57701
    R6        2.58219   0.00006   0.00000   0.00013   0.00013   2.58232
    R7        2.04168  -0.00006   0.00000  -0.00017  -0.00017   2.04151
    R8        3.26175   0.00005   0.00000   0.00016   0.00016   3.26190
    R9        2.03912  -0.00001   0.00000  -0.00004  -0.00004   2.03908
   R10        2.62118  -0.00014   0.00000  -0.00030  -0.00030   2.62089
   R11        3.32335   0.00005   0.00000   0.00014   0.00014   3.32349
   R12        2.69003   0.00008   0.00000   0.00019   0.00019   2.69022
   R13        2.57684   0.00009   0.00000   0.00018   0.00018   2.57701
   R14        3.26175   0.00005   0.00000   0.00016   0.00016   3.26190
   R15        2.58219   0.00006   0.00000   0.00013   0.00013   2.58232
   R16        2.04168  -0.00006   0.00000  -0.00017  -0.00017   2.04151
   R17        2.03912  -0.00001   0.00000  -0.00004  -0.00004   2.03908
   R18        2.68632   0.00007   0.00000   0.00018   0.00018   2.68650
   R19        2.68632   0.00007   0.00000   0.00018   0.00018   2.68650
   R20        2.06947   0.00011   0.00000   0.00033   0.00033   2.06980
   R21        2.05719   0.00014   0.00000   0.00040   0.00040   2.05759
   R22        2.06947   0.00011   0.00000   0.00033   0.00033   2.06980
   R23        2.06947   0.00011   0.00000   0.00033   0.00033   2.06980
   R24        2.05719   0.00014   0.00000   0.00040   0.00040   2.05759
   R25        2.06947   0.00011   0.00000   0.00033   0.00033   2.06980
    A1        1.90639   0.00009   0.00000   0.00033   0.00033   1.90672
    A2        2.23296   0.00004   0.00000   0.00018   0.00018   2.23314
    A3        2.14384  -0.00013   0.00000  -0.00051  -0.00051   2.14333
    A4        1.99480  -0.00000   0.00000  -0.00003  -0.00003   1.99477
    A5        2.08497  -0.00001   0.00000   0.00000   0.00000   2.08497
    A6        2.20341   0.00001   0.00000   0.00003   0.00003   2.20344
    A7        1.95572  -0.00007   0.00000  -0.00027  -0.00027   1.95546
    A8        2.17384  -0.00000   0.00000  -0.00009  -0.00009   2.17375
    A9        2.15362   0.00007   0.00000   0.00036   0.00036   2.15398
   A10        1.96177   0.00006   0.00000   0.00031   0.00031   1.96208
   A11        2.23094  -0.00004   0.00000  -0.00025  -0.00025   2.23069
   A12        2.09048  -0.00001   0.00000  -0.00007  -0.00007   2.09041
   A13        1.60610  -0.00008   0.00000  -0.00035  -0.00035   1.60575
   A14        2.23296   0.00004   0.00000   0.00018   0.00018   2.23314
   A15        2.14384  -0.00013   0.00000  -0.00051  -0.00051   2.14333
   A16        1.90639   0.00009   0.00000   0.00033   0.00033   1.90672
   A17        1.99480  -0.00000   0.00000  -0.00002  -0.00002   1.99478
   A18        2.08497  -0.00001   0.00000  -0.00001  -0.00001   2.08496
   A19        2.20341   0.00001   0.00000   0.00004   0.00004   2.20345
   A20        1.60610  -0.00008   0.00000  -0.00035  -0.00035   1.60575
   A21        1.95572  -0.00007   0.00000  -0.00027  -0.00027   1.95546
   A22        2.17384  -0.00000   0.00000  -0.00009  -0.00009   2.17375
   A23        2.15362   0.00007   0.00000   0.00036   0.00036   2.15398
   A24        1.96177   0.00006   0.00000   0.00031   0.00031   1.96208
   A25        2.09048  -0.00001   0.00000  -0.00007  -0.00007   2.09041
   A26        2.23094  -0.00004   0.00000  -0.00025  -0.00025   2.23069
   A27        2.05933   0.00008   0.00000   0.00031   0.00031   2.05964
   A28        2.05933   0.00008   0.00000   0.00031   0.00031   2.05964
   A29        1.94159  -0.00003   0.00000  -0.00020  -0.00020   1.94140
   A30        1.84964   0.00001   0.00000   0.00005   0.00005   1.84969
   A31        1.94160  -0.00003   0.00000  -0.00020  -0.00020   1.94140
   A32        1.90836   0.00001   0.00000   0.00006   0.00006   1.90842
   A33        1.91300   0.00003   0.00000   0.00022   0.00022   1.91322
   A34        1.90835   0.00001   0.00000   0.00006   0.00006   1.90841
   A35        1.94159  -0.00003   0.00000  -0.00019  -0.00019   1.94140
   A36        1.84964   0.00001   0.00000   0.00005   0.00005   1.84969
   A37        1.94160  -0.00003   0.00000  -0.00020  -0.00020   1.94140
   A38        1.90836   0.00001   0.00000   0.00006   0.00006   1.90842
   A39        1.91300   0.00003   0.00000   0.00022   0.00022   1.91322
   A40        1.90835   0.00001   0.00000   0.00006   0.00006   1.90841
    D1        0.00007  -0.00000   0.00000  -0.00012  -0.00012  -0.00005
    D2       -3.14152  -0.00000   0.00000  -0.00006  -0.00006  -3.14158
    D3       -3.14157  -0.00000   0.00000  -0.00005  -0.00005   3.14157
    D4        0.00003   0.00000   0.00000   0.00002   0.00002   0.00004
    D5       -0.00007   0.00000   0.00000   0.00014   0.00014   0.00007
    D6        3.14156   0.00000   0.00000   0.00007   0.00007  -3.14155
    D7        3.14148  -0.00000   0.00000  -0.00003  -0.00003   3.14146
    D8       -0.00016   0.00000   0.00000   0.00006   0.00006  -0.00010
    D9       -0.00016   0.00000   0.00000   0.00006   0.00006  -0.00010
   D10        3.14138   0.00000   0.00000   0.00014   0.00014   3.14152
   D11       -0.00003   0.00000   0.00000   0.00003   0.00003  -0.00000
   D12        3.14157   0.00000   0.00000   0.00004   0.00004  -3.14157
   D13        3.14156  -0.00000   0.00000  -0.00004  -0.00004   3.14153
   D14       -0.00002  -0.00000   0.00000  -0.00003  -0.00003  -0.00004
   D15       -3.14122  -0.00000   0.00000  -0.00005  -0.00005  -3.14127
   D16        0.00037   0.00000   0.00000   0.00002   0.00002   0.00039
   D17       -0.00003   0.00000   0.00000   0.00008   0.00008   0.00005
   D18       -3.14157  -0.00000   0.00000  -0.00001  -0.00001  -3.14159
   D19        3.14155   0.00000   0.00000   0.00007   0.00007  -3.14156
   D20        0.00001  -0.00000   0.00000  -0.00003  -0.00003  -0.00002
   D21        0.00006  -0.00000   0.00000  -0.00013  -0.00013  -0.00007
   D22       -3.14158  -0.00000   0.00000  -0.00004  -0.00004   3.14157
   D23       -3.14156  -0.00000   0.00000  -0.00005  -0.00005   3.14157
   D24        0.00002   0.00000   0.00000   0.00002   0.00002   0.00004
   D25        0.00007  -0.00000   0.00000  -0.00012  -0.00012  -0.00005
   D26       -3.14152  -0.00000   0.00000  -0.00006  -0.00006  -3.14158
   D27        3.14156   0.00000   0.00000   0.00007   0.00007  -3.14156
   D28       -0.00007   0.00000   0.00000   0.00014   0.00014   0.00007
   D29       -0.00003   0.00000   0.00000   0.00003   0.00003  -0.00000
   D30        3.14157   0.00000   0.00000   0.00004   0.00004  -3.14157
   D31        3.14157  -0.00000   0.00000  -0.00004  -0.00004   3.14153
   D32       -0.00002  -0.00000   0.00000  -0.00003  -0.00003  -0.00004
   D33       -3.14125  -0.00000   0.00000  -0.00005  -0.00005  -3.14130
   D34        0.00034   0.00000   0.00000   0.00002   0.00002   0.00036
   D35        0.00006  -0.00000   0.00000  -0.00013  -0.00013  -0.00007
   D36       -3.14158  -0.00000   0.00000  -0.00004  -0.00004   3.14156
   D37       -0.00003   0.00000   0.00000   0.00008   0.00008   0.00005
   D38       -3.14157  -0.00000   0.00000  -0.00001  -0.00001  -3.14159
   D39        3.14156   0.00000   0.00000   0.00007   0.00007  -3.14156
   D40        0.00001  -0.00000   0.00000  -0.00003  -0.00003  -0.00001
   D41        1.06888   0.00000   0.00000   0.00003   0.00003   1.06891
   D42        3.14139   0.00000   0.00000   0.00003   0.00003   3.14141
   D43       -1.06931   0.00000   0.00000   0.00003   0.00003  -1.06928
   D44        1.06890   0.00000   0.00000   0.00003   0.00003   1.06893
   D45        3.14140   0.00000   0.00000   0.00003   0.00003   3.14143
   D46       -1.06929   0.00000   0.00000   0.00002   0.00002  -1.06926
         Item               Value     Threshold  Converged?
 Maximum Force            0.000212     0.000450     YES
 RMS     Force            0.000057     0.000300     YES
 Maximum Displacement     0.001637     0.001800     YES
 RMS     Displacement     0.000463     0.001200     YES
 Predicted change in Energy=-5.597223D-07
 Optimization completed.
    -- Stationary point found.
                           ----------------------------
                           !   Optimized Parameters   !
                           ! (Angstroms and Degrees)  !
 --------------------------                            --------------------------
 ! Name  Definition              Value          Derivative Info.                !
 --------------------------------------------------------------------------------
 ! R1    R(1,2)                  1.3871         -DE/DX =   -0.0001              !
 ! R2    R(1,5)                  1.7586         -DE/DX =    0.0                 !
 ! R3    R(1,8)                  1.4437         -DE/DX =   -0.0002              !
 ! R4    R(2,3)                  1.4235         -DE/DX =    0.0001              !
 ! R5    R(2,15)                 1.3636         -DE/DX =    0.0001              !
 ! R6    R(3,4)                  1.3664         -DE/DX =    0.0001              !
 ! R7    R(3,6)                  1.0804         -DE/DX =   -0.0001              !
 ! R8    R(4,5)                  1.726          -DE/DX =    0.0                 !
 ! R9    R(4,7)                  1.0791         -DE/DX =    0.0                 !
 ! R10   R(8,9)                  1.3871         -DE/DX =   -0.0001              !
 ! R11   R(8,10)                 1.7586         -DE/DX =    0.0                 !
 ! R12   R(9,11)                 1.4235         -DE/DX =    0.0001              !
 ! R13   R(9,16)                 1.3636         -DE/DX =    0.0001              !
 ! R14   R(10,12)                1.726          -DE/DX =    0.0                 !
 ! R15   R(11,12)                1.3664         -DE/DX =    0.0001              !
 ! R16   R(11,13)                1.0804         -DE/DX =   -0.0001              !
 ! R17   R(12,14)                1.0791         -DE/DX =    0.0                 !
 ! R18   R(15,21)                1.4215         -DE/DX =    0.0001              !
 ! R19   R(16,17)                1.4215         -DE/DX =    0.0001              !
 ! R20   R(17,18)                1.0951         -DE/DX =    0.0001              !
 ! R21   R(17,19)                1.0886         -DE/DX =    0.0001              !
 ! R22   R(17,20)                1.0951         -DE/DX =    0.0001              !
 ! R23   R(21,22)                1.0951         -DE/DX =    0.0001              !
 ! R24   R(21,23)                1.0886         -DE/DX =    0.0001              !
 ! R25   R(21,24)                1.0951         -DE/DX =    0.0001              !
 ! A1    A(2,1,5)              109.228          -DE/DX =    0.0001              !
 ! A2    A(2,1,8)              127.9393         -DE/DX =    0.0                 !
 ! A3    A(5,1,8)              122.8328         -DE/DX =   -0.0001              !
 ! A4    A(1,2,3)              114.2937         -DE/DX =    0.0                 !
 ! A5    A(1,2,15)             119.46           -DE/DX =    0.0                 !
 ! A6    A(3,2,15)             126.2463         -DE/DX =    0.0                 !
 ! A7    A(2,3,4)              112.0548         -DE/DX =   -0.0001              !
 ! A8    A(2,3,6)              124.5521         -DE/DX =    0.0                 !
 ! A9    A(4,3,6)              123.3931         -DE/DX =    0.0001              !
 ! A10   A(3,4,5)              112.4009         -DE/DX =    0.0001              !
 ! A11   A(3,4,7)              127.8234         -DE/DX =    0.0                 !
 ! A12   A(5,4,7)              119.7757         -DE/DX =    0.0                 !
 ! A13   A(1,5,4)               92.0227         -DE/DX =   -0.0001              !
 ! A14   A(1,8,9)              127.9393         -DE/DX =    0.0                 !
 ! A15   A(1,8,10)             122.8328         -DE/DX =   -0.0001              !
 ! A16   A(9,8,10)             109.228          -DE/DX =    0.0001              !
 ! A17   A(8,9,11)             114.2937         -DE/DX =    0.0                 !
 ! A18   A(8,9,16)             119.46           -DE/DX =    0.0                 !
 ! A19   A(11,9,16)            126.2463         -DE/DX =    0.0                 !
 ! A20   A(8,10,12)             92.0227         -DE/DX =   -0.0001              !
 ! A21   A(9,11,12)            112.0548         -DE/DX =   -0.0001              !
 ! A22   A(9,11,13)            124.5521         -DE/DX =    0.0                 !
 ! A23   A(12,11,13)           123.3931         -DE/DX =    0.0001              !
 ! A24   A(10,12,11)           112.4009         -DE/DX =    0.0001              !
 ! A25   A(10,12,14)           119.7757         -DE/DX =    0.0                 !
 ! A26   A(11,12,14)           127.8234         -DE/DX =    0.0                 !
 ! A27   A(2,15,21)            117.9908         -DE/DX =    0.0001              !
 ! A28   A(9,16,17)            117.9908         -DE/DX =    0.0001              !
 ! A29   A(16,17,18)           111.2449         -DE/DX =    0.0                 !
 ! A30   A(16,17,19)           105.9768         -DE/DX =    0.0                 !
 ! A31   A(16,17,20)           111.2452         -DE/DX =    0.0                 !
 ! A32   A(18,17,19)           109.3408         -DE/DX =    0.0                 !
 ! A33   A(18,17,20)           109.6069         -DE/DX =    0.0                 !
 ! A34   A(19,17,20)           109.3403         -DE/DX =    0.0                 !
 ! A35   A(15,21,22)           111.2449         -DE/DX =    0.0                 !
 ! A36   A(15,21,23)           105.9768         -DE/DX =    0.0                 !
 ! A37   A(15,21,24)           111.2452         -DE/DX =    0.0                 !
 ! A38   A(22,21,23)           109.3409         -DE/DX =    0.0                 !
 ! A39   A(22,21,24)           109.6069         -DE/DX =    0.0                 !
 ! A40   A(23,21,24)           109.3402         -DE/DX =    0.0                 !
 ! D1    D(5,1,2,3)              0.0042         -DE/DX =    0.0                 !
 ! D2    D(5,1,2,15)          -179.9959         -DE/DX =    0.0                 !
 ! D3    D(8,1,2,3)            180.0016         -DE/DX =    0.0                 !
 ! D4    D(8,1,2,15)             0.0015         -DE/DX =    0.0                 !
 ! D5    D(2,1,5,4)             -0.0042         -DE/DX =    0.0                 !
 ! D6    D(8,1,5,4)           -180.0017         -DE/DX =    0.0                 !
 ! D7    D(2,1,8,9)            179.9937         -DE/DX =    0.0                 !
 ! D8    D(2,1,8,10)            -0.0091         -DE/DX =    0.0                 !
 ! D9    D(5,1,8,9)             -0.0093         -DE/DX =    0.0                 !
 ! D10   D(5,1,8,10)           179.9879         -DE/DX =    0.0                 !
 ! D11   D(1,2,3,4)             -0.0018         -DE/DX =    0.0                 !
 ! D12   D(1,2,3,6)           -180.0012         -DE/DX =    0.0                 !
 ! D13   D(15,2,3,4)           179.9983         -DE/DX =    0.0                 !
 ! D14   D(15,2,3,6)            -0.0011         -DE/DX =    0.0                 !
 ! D15   D(1,2,15,21)         -179.9784         -DE/DX =    0.0                 !
 ! D16   D(3,2,15,21)            0.0215         -DE/DX =    0.0                 !
 ! D17   D(2,3,4,5)             -0.0015         -DE/DX =    0.0                 !
 ! D18   D(2,3,4,7)           -179.9988         -DE/DX =    0.0                 !
 ! D19   D(6,3,4,5)           -180.0022         -DE/DX =    0.0                 !
 ! D20   D(6,3,4,7)              0.0006         -DE/DX =    0.0                 !
 ! D21   D(3,4,5,1)              0.0033         -DE/DX =    0.0                 !
 ! D22   D(7,4,5,1)            180.0008         -DE/DX =    0.0                 !
 ! D23   D(1,8,9,11)           180.0017         -DE/DX =    0.0                 !
 ! D24   D(1,8,9,16)             0.0014         -DE/DX =    0.0                 !
 ! D25   D(10,8,9,11)            0.0041         -DE/DX =    0.0                 !
 ! D26   D(10,8,9,16)         -179.9961         -DE/DX =    0.0                 !
 ! D27   D(1,8,10,12)         -180.0018         -DE/DX =    0.0                 !
 ! D28   D(9,8,10,12)           -0.0042         -DE/DX =    0.0                 !
 ! D29   D(8,9,11,12)           -0.0018         -DE/DX =    0.0                 !
 ! D30   D(8,9,11,13)         -180.0012         -DE/DX =    0.0                 !
 ! D31   D(16,9,11,12)         179.9985         -DE/DX =    0.0                 !
 ! D32   D(16,9,11,13)          -0.001          -DE/DX =    0.0                 !
 ! D33   D(8,9,16,17)         -179.9802         -DE/DX =    0.0                 !
 ! D34   D(11,9,16,17)           0.0196         -DE/DX =    0.0                 !
 ! D35   D(8,10,12,11)           0.0033         -DE/DX =    0.0                 !
 ! D36   D(8,10,12,14)         180.0008         -DE/DX =    0.0                 !
 ! D37   D(9,11,12,10)          -0.0015         -DE/DX =    0.0                 !
 ! D38   D(9,11,12,14)        -179.9988         -DE/DX =    0.0                 !
 ! D39   D(13,11,12,10)       -180.0021         -DE/DX =    0.0                 !
 ! D40   D(13,11,12,14)          0.0007         -DE/DX =    0.0                 !
 ! D41   D(2,15,21,22)          61.2425         -DE/DX =    0.0                 !
 ! D42   D(2,15,21,23)         179.9882         -DE/DX =    0.0                 !
 ! D43   D(2,15,21,24)         -61.2668         -DE/DX =    0.0                 !
 ! D44   D(9,16,17,18)          61.2435         -DE/DX =    0.0                 !
 ! D45   D(9,16,17,19)         179.9891         -DE/DX =    0.0                 !
 ! D46   D(9,16,17,20)         -61.2658         -DE/DX =    0.0                 !
 --------------------------------------------------------------------------------
 Iteration  1 RMS(Cart)=  0.00171384 RMS(Int)=  0.00026625
 Iteration  2 RMS(Cart)=  0.00000180 RMS(Int)=  0.00026625
 Iteration  3 RMS(Cart)=  0.00000000 RMS(Int)=  0.00026625
 Iteration  1 RMS(Cart)=  0.00070798 RMS(Int)=  0.00011005
 Iteration  2 RMS(Cart)=  0.00029256 RMS(Int)=  0.00012267
 Iteration  3 RMS(Cart)=  0.00012092 RMS(Int)=  0.00013408
 Iteration  4 RMS(Cart)=  0.00004998 RMS(Int)=  0.00013957
 Iteration  5 RMS(Cart)=  0.00002066 RMS(Int)=  0.00014196
 Iteration  6 RMS(Cart)=  0.00000854 RMS(Int)=  0.00014297
 Iteration  7 RMS(Cart)=  0.00000353 RMS(Int)=  0.00014338
 Iteration  8 RMS(Cart)=  0.00000146 RMS(Int)=  0.00014356
 Iteration  9 RMS(Cart)=  0.00000060 RMS(Int)=  0.00014363
 GradGradGradGradGradGradGradGradGradGradGradGradGradGradGradGradGradGrad

                          Input orientation:                          
 ---------------------------------------------------------------------
 Center     Atomic      Atomic             Coordinates (Angstroms)
 Number     Number       Type             X           Y           Z
 ---------------------------------------------------------------------
      1          6           0       -0.592608   -0.408865   -0.000053
      2          6           0       -1.915922    0.006995    0.000019
      3          6           0       -2.862400   -1.056658   -0.000030
      4          6           0       -2.257922   -2.282131   -0.000138
      5         16           0       -0.535898   -2.166625   -0.000101
      6          1           0       -3.934348   -0.922421   -0.000006
      7          1           0       -2.729838   -3.252499   -0.000200
      8          6           0        0.595100    0.411342   -0.000052
      9          6           0        1.918388   -0.003919    0.000025
     10         16           0        0.539104    2.169165   -0.000106
     11          6           0        2.865683    1.058754   -0.000023
     12          6           0        2.261380    2.284378   -0.000138
     13          1           0        3.937560    0.923954    0.000005
     14          1           0        2.733462    3.254666   -0.000202
     15          8           0       -2.205600    1.339571    0.000051
     16          8           0        2.202773   -1.337634    0.000066
     17          6           0        3.569529   -1.728816    0.000514
     18          1           0        4.085739   -1.365832    0.895741
     19          1           0        3.569677   -2.817647    0.000640
     20          1           0        4.086267   -1.366047   -0.894497
     21          6           0       -3.573899    1.725324    0.000529
     22          1           0       -4.088646    1.360289    0.895765
     23          1           0       -3.578369    2.814146    0.000657
     24          1           0       -4.089211    1.360509   -0.894473
 ---------------------------------------------------------------------
                    Distance matrix (angstroms):
                    1          2          3          4          5
     1  C    0.000000
     2  C    1.387119   0.000000
     3  C    2.360421   1.423790   0.000000
     4  C    2.506471   2.314533   1.366447   0.000000
     5  S    1.758674   2.574702   2.577719   1.725893   0.000000
     6  H    3.380970   2.222129   1.080320   2.158522   3.619047
     7  H    3.557247   3.359578   2.199840   1.079037   2.447958
     8  C    1.443395   2.543369   3.756238   3.923586   2.815150
     9  C    2.543440   3.834326   4.895324   4.757291   3.271211
    10  S    2.815495   3.271411   4.687874   5.257128   4.467069
    11  C    3.756818   4.895911   6.106218   6.116604   4.687625
    12  C    3.924131   4.757764   6.116832   6.424725   5.257013
    13  H    4.722164   5.924869   7.082534   6.975886   5.437234
    14  H    4.948152   5.671344   7.064077   7.454531   6.330806
    15  O    2.378817   1.363698   2.484612   3.622080   3.883467
    16  O    2.945636   4.332629   5.072960   4.559592   2.861389
    17  C    4.366424   5.753539   6.466955   5.853661   4.128706
    18  H    4.858515   6.221488   7.012463   6.471804   4.775284
    19  H    4.809038   6.170121   6.668785   5.852152   4.156871
    20  H    4.858817   6.221871   7.012829   6.472080   4.775488
    21  C    3.666450   2.387790   2.871524   4.217996   4.937277
    22  H    4.019288   2.711917   2.854428   4.173897   5.085638
    23  H    4.393469   3.262488   3.936462   5.264563   5.836498
    24  H    4.019565   2.712066   2.854433   4.174000   5.085922
                    6          7          8          9         10
     6  H    0.000000
     7  H    2.622996   0.000000
     8  C    4.721739   4.947620   0.000000
     9  C    5.924370   5.670916   1.386915   0.000000
    10  S    5.437801   6.330911   1.758715   2.573853   0.000000
    11  C    7.082759   7.063764   2.361078   1.423601   2.577980
    12  C    6.976432   7.454480   2.506941   2.313859   1.726125
    13  H    8.085545   7.867463   3.381540   2.222162   3.619400
    14  H    7.868147   8.496520   3.557680   3.358976   2.448167
    15  O    2.846959   4.621898   2.950514   4.337308   2.867338
    16  O    6.151151   5.291254   2.375611   1.363698   3.881422
    17  C    7.547081   6.481022   3.664356   2.387789   4.937381
    18  H    8.082127   7.128417   4.018128   2.711923   5.086980
    19  H    7.739655   6.314506   4.390270   3.262487   5.835466
    20  H    8.082523   7.128658   4.018381   2.712059   5.087241
    21  C    2.672167   5.048877   4.371167   5.758081   4.136881
    22  H    2.457027   4.891516   4.862146   6.224778   4.782565
    23  H    3.753485   6.125699   4.815736   6.177041   4.167684
    24  H    2.456791   4.891571   4.862476   6.225194   4.782794
                   11         12         13         14         15
    11  C    0.000000
    12  C    1.366505   0.000000
    13  H    1.080320   2.158780   0.000000
    14  H    2.199889   1.079037   2.623369   0.000000
    15  O    5.079052   4.565805   6.157204   5.297351   0.000000
    16  O    2.486388   3.622486   2.850310   4.622861   5.157634
    17  C    2.875056   4.221016   2.678178   5.053127   6.539657
    18  H    2.858242   4.177908   2.463213   4.896974   6.906694
    19  H    3.939808   5.267096   3.759643   6.129619   7.115918
    20  H    2.858246   4.178001   2.462997   4.897022   6.907111
    21  C    6.473988   5.861998   7.554085   6.490123   1.421635
    22  H    7.018265   6.479151   8.087815   7.136706   2.085328
    23  H    6.678863   5.863730   7.749969   6.327186   2.014663
    24  H    7.018664   6.479458   8.088246   7.136976   2.085330
                   16         17         18         19         20
    16  O    0.000000
    17  C    1.421634   0.000000
    18  H    2.085327   1.095291   0.000000
    19  H    2.014662   1.088831   1.781936   0.000000
    20  H    2.085329   1.095292   1.790238   1.781931   0.000000
    21  C    6.538474   7.934711   8.308231   8.465769   8.308777
    22  H    6.903841   8.306123   8.616978   8.769624   8.801542
    23  H    7.117506   8.469413   8.775645   9.100091   8.776216
    24  H    6.904292   8.306698   8.801569   8.770221   8.618152
                   21         22         23         24
    21  C    0.000000
    22  H    1.095291   0.000000
    23  H    1.088831   1.781937   0.000000
    24  H    1.095292   1.790238   1.781931   0.000000
 Stoichiometry    C10H10O2S2
 Framework group  C1[X(C10H10O2S2)]
 Deg. of freedom    66
 Full point group                 C1      NOp   1
 Largest Abelian subgroup         C1      NOp   1
 Largest concise Abelian subgroup C1      NOp   1
                         Standard orientation:                         
 ---------------------------------------------------------------------
 Center     Atomic      Atomic             Coordinates (Angstroms)
 Number     Number       Type             X           Y           Z
 ---------------------------------------------------------------------
      1          6           0       -0.592735   -0.410188   -0.000095
      2          6           0       -1.916478    0.004304   -0.000023
      3          6           0       -2.861855   -1.060327   -0.000072
      4          6           0       -2.256110   -2.285175   -0.000180
      5         16           0       -0.534207   -2.167888   -0.000143
      6          1           0       -3.933941   -0.927199   -0.000049
      7          1           0       -2.727023   -3.256031   -0.000242
      8          6           0        0.594124    0.411247   -0.000094
      9          6           0        1.917841   -0.002644   -0.000017
     10         16           0        0.536311    2.169012   -0.000148
     11          6           0        2.864037    1.061007   -0.000065
     12          6           0        2.258466    2.286006   -0.000180
     13          1           0        3.936053    0.927317   -0.000037
     14          1           0        2.729545    3.256781   -0.000244
     15          8           0       -2.207534    1.336579    0.000009
     16          8           0        2.203606   -1.336065    0.000024
     17          6           0        3.570765   -1.725833    0.000472
     18          1           0        4.086600   -1.362315    0.895699
     19          1           0        3.572039   -2.814663    0.000598
     20          1           0        4.087128   -1.362530   -0.894539
     21          6           0       -3.576231    1.720917    0.000486
     22          1           0       -4.090600    1.355350    0.895723
     23          1           0       -3.581828    2.809734    0.000615
     24          1           0       -4.091166    1.355569   -0.894515
 ---------------------------------------------------------------------
 Rotational constants (GHZ):           0.7964929           0.4862044           0.3030790
 Standard basis: 6-311+G(d,p) (5D, 7F)
 There are   398 symmetry adapted cartesian basis functions of A   symmetry.
 There are   384 symmetry adapted basis functions of A   symmetry.
   384 basis functions,   612 primitive gaussians,   398 cartesian basis functions
    59 alpha electrons       59 beta electrons
       nuclear repulsion energy      1105.7162937985 Hartrees.
 NAtoms=   24 NActive=   24 NUniq=   24 SFac= 1.00D+00 NAtFMM=   60 NAOKFM=F Big=F
 Integral buffers will be    131072 words long.
 Raffenetti 2 integral format.
 Two-electron integral symmetry is turned on.
 One-electron integrals computed using PRISM.
 NBasis=   384 RedAO= T EigKep=  1.03D-06  NBF=   384
 NBsUse=   382 1.00D-06 EigRej=  3.64D-07 NBFU=   382
 Initial guess from the checkpoint file:  "temp.chk"
 B after Tr=     0.000000   -0.000000   -0.000000
         Rot=    1.000000   -0.000000   -0.000000   -0.000464 Ang=  -0.05 deg.
 ExpMin= 4.05D-02 ExpMax= 9.34D+04 ExpMxC= 3.17D+03 IAcc=2 IRadAn=         4 AccDes= 0.00D+00
 Harris functional with IExCor=  402 and IRadAn=       4 diagonalized for initial guess.
 HarFok:  IExCor=  402 AccDes= 0.00D+00 IRadAn=         4 IDoV= 1 UseB2=F ITyADJ=14
 ICtDFT=  3500011 ScaDFX=  1.000000  1.000000  1.000000  1.000000
 FoFCou: FMM=F IPFlag=           0 FMFlag=      100000 FMFlg1=           0
         NFxFlg=           0 DoJE=T BraDBF=F KetDBF=T FulRan=T
         wScrn=  0.000000 ICntrl=       500 IOpCl=  0 I1Cent=   200000004 NGrid=           0
         NMat0=    1 NMatS0=      1 NMatT0=    0 NMatD0=    1 NMtDS0=    0 NMtDT0=    0
 Petite list used in FoFCou.
 Requested convergence on RMS density matrix=1.00D-08 within 128 cycles.
 Requested convergence on MAX density matrix=1.00D-06.
 Requested convergence on             energy=1.00D-06.
 No special actions if energy rises.
 SCF Done:  E(RB3LYP) =  -1334.05172383     A.U. after    9 cycles
            NFock=  9  Conv=0.81D-08     -V/T= 2.0025
 Calling FoFJK, ICntrl=      2127 FMM=F ISym2X=0 I1Cent= 0 IOpClX= 0 NMat=1 NMatS=1 NMatT=0.
 ***** Axes restored to original set *****
[...]
                 (A) (A) (A) (A) (A) (A) (A) (A) (A) (A) (A) (A)
                 (A) (A) (A) (A) (A) (A) (A) (A) (A) (A) (A) (A)
                 (A) (A) (A) (A) (A) (A) (A) (A) (A) (A) (A) (A)
                 (A) (A) (A) (A) (A) (A) (A) (A) (A) (A) (A) (A)
                 (A) (A) (A) (A) (A) (A) (A) (A) (A) (A) (A) (A)
                 (A) (A) (A) (A) (A) (A) (A) (A) (A) (A) (A) (A)
                 (A) (A) (A) (A) (A) (A) (A) (A) (A) (A) (A) (A)
                 (A) (A) (A) (A) (A) (A) (A) (A) (A) (A) (A) (A)
                 (A) (A) (A) (A) (A) (A) (A) (A) (A) (A) (A) (A)
                 (A) (A) (A) (A) (A) (A) (A) (A) (A) (A) (A) (A)
                 (A) (A) (A) (A) (A) (A) (A) (A) (A) (A) (A) (A)
                 (A) (A) (A) (A) (A) (A) (A) (A) (A) (A) (A) (A)
                 (A) (A) (A) (A) (A) (A) (A) (A) (A) (A) (A) (A)
                 (A) (A) (A) (A) (A) (A) (A) (A) (A) (A) (A) (A)
                 (A) (A) (A) (A) (A) (A) (A) (A) (A) (A) (A) (A)
                 (A) (A) (A) (A) (A) (A) (A) (A) (A) (A) (A) (A)
                 (A) (A) (A) (A) (A) (A) (A) (A) (A) (A) (A) (A)
                 (A) (A) (A) (A) (A) (A) (A) (A) (A) (A) (A)
 The electronic state is 1-A.
 Alpha  occ. eigenvalues --  -88.87113 -88.87104 -19.15885 -19.15790 -10.23393
 Alpha  occ. eigenvalues --  -10.23223 -10.23082 -10.22955 -10.20550 -10.20370
 Alpha  occ. eigenvalues --  -10.19636 -10.19447 -10.17774 -10.17477  -7.95681
 Alpha  occ. eigenvalues --   -7.95672  -5.91996  -5.91981  -5.91603  -5.91595
 Alpha  occ. eigenvalues --   -5.91242  -5.91241  -1.07451  -1.07298  -0.88852
 Alpha  occ. eigenvalues --   -0.87013  -0.77115  -0.75553  -0.74114  -0.71716
 Alpha  occ. eigenvalues --   -0.69596  -0.67485  -0.59655  -0.58310  -0.55286
 Alpha  occ. eigenvalues --   -0.55233  -0.53790  -0.48338  -0.47788  -0.47540
 Alpha  occ. eigenvalues --   -0.47308  -0.45888  -0.44413  -0.44118  -0.41590
 Alpha  occ. eigenvalues --   -0.40692  -0.40545  -0.37922  -0.37649  -0.36226
 Alpha  occ. eigenvalues --   -0.34931  -0.33285  -0.32748  -0.32684  -0.32662
 Alpha  occ. eigenvalues --   -0.27480  -0.23811  -0.23466  -0.18507
 Alpha virt. eigenvalues --   -0.03930  -0.00066   0.00341   0.00612   0.01012
 Alpha virt. eigenvalues --    0.01284   0.02133   0.02902   0.02979   0.03628
 Alpha virt. eigenvalues --    0.03946   0.05039   0.05082   0.05254   0.05732
 Alpha virt. eigenvalues --    0.06227   0.06285   0.07079   0.07816   0.08057
 Alpha virt. eigenvalues --    0.08169   0.08848   0.09243   0.09337   0.09510
 Alpha virt. eigenvalues --    0.11613   0.12115   0.12171   0.12206   0.12402
 Alpha virt. eigenvalues --    0.13185   0.13669   0.14014   0.14500   0.15493
 Alpha virt. eigenvalues --    0.15588   0.15927   0.16226   0.16297   0.17078
 Alpha virt. eigenvalues --    0.17729   0.18099   0.18518   0.18904   0.19241
 Alpha virt. eigenvalues --    0.19631   0.19784   0.20080   0.20502   0.20883
 Alpha virt. eigenvalues --    0.21012   0.21748   0.21862   0.22108   0.23118
 Alpha virt. eigenvalues --    0.23238   0.23786   0.24667   0.25053   0.25607
 Alpha virt. eigenvalues --    0.26467   0.26662   0.26835   0.27734   0.27885
 Alpha virt. eigenvalues --    0.28270   0.28796   0.30352   0.30390   0.31026
 Alpha virt. eigenvalues --    0.31451   0.33079   0.34950   0.35172   0.35649
 Alpha virt. eigenvalues --    0.35824   0.36314   0.36638   0.37229   0.38805
 Alpha virt. eigenvalues --    0.39244   0.42774   0.43082   0.43669   0.44442
 Alpha virt. eigenvalues --    0.44628   0.45257   0.46097   0.46790   0.49708
 Alpha virt. eigenvalues --    0.49950   0.50932   0.51427   0.52880   0.54180
 Alpha virt. eigenvalues --    0.55577   0.55920   0.55945   0.57078   0.57229
 Alpha virt. eigenvalues --    0.58124   0.58565   0.60810   0.61790   0.62137
 Alpha virt. eigenvalues --    0.62593   0.63357   0.64964   0.65312   0.65693
 Alpha virt. eigenvalues --    0.66323   0.67024   0.68601   0.70740   0.71719
 Alpha virt. eigenvalues --    0.72179   0.73057   0.74685   0.75424   0.75524
 Alpha virt. eigenvalues --    0.75695   0.76286   0.77999   0.78464   0.78627
 Alpha virt. eigenvalues --    0.79567   0.82183   0.82640   0.83079   0.83985
 Alpha virt. eigenvalues --    0.86377   0.86721   0.86861   0.90058   0.91475
 Alpha virt. eigenvalues --    0.91851   0.92553   0.95831   0.96526   0.97292
 Alpha virt. eigenvalues --    0.99885   1.00156   1.01039   1.01795   1.02625
 Alpha virt. eigenvalues --    1.02634   1.04511   1.05489   1.05694   1.07301
 Alpha virt. eigenvalues --    1.08105   1.08189   1.08514   1.08846   1.10750
 Alpha virt. eigenvalues --    1.11907   1.15980   1.17819   1.22184   1.25589
 Alpha virt. eigenvalues --    1.26085   1.26824   1.31409   1.32256   1.34584
 Alpha virt. eigenvalues --    1.36344   1.36701   1.40368   1.41178   1.42838
 Alpha virt. eigenvalues --    1.42948   1.44037   1.45065   1.46307   1.48410
 Alpha virt. eigenvalues --    1.53544   1.53976   1.54848   1.55450   1.55997
 Alpha virt. eigenvalues --    1.60920   1.61118   1.61857   1.63005   1.64323
 Alpha virt. eigenvalues --    1.64529   1.65801   1.67930   1.68703   1.69553
 Alpha virt. eigenvalues --    1.69911   1.70320   1.73748   1.76198   1.76285
 Alpha virt. eigenvalues --    1.77831   1.78301   1.79116   1.80624   1.81092
 Alpha virt. eigenvalues --    1.82445   1.84881   1.86457   1.87908   1.88546
 Alpha virt. eigenvalues --    1.92295   1.94828   1.95652   1.99840   2.01389
 Alpha virt. eigenvalues --    2.01513   2.02775   2.03674   2.05186   2.06054
 Alpha virt. eigenvalues --    2.07265   2.07865   2.10055   2.11332   2.12289
 Alpha virt. eigenvalues --    2.13353   2.13833   2.14190   2.16059   2.16533
 Alpha virt. eigenvalues --    2.19531   2.20650   2.21145   2.23155   2.39897
 Alpha virt. eigenvalues --    2.42336   2.43450   2.43847   2.45912   2.46417
 Alpha virt. eigenvalues --    2.47112   2.50212   2.50552   2.52231   2.52418
 Alpha virt. eigenvalues --    2.53400   2.55341   2.57271   2.61770   2.65051
 Alpha virt. eigenvalues --    2.66430   2.67859   2.69576   2.69863   2.73386
 Alpha virt. eigenvalues --    2.73868   2.76323   2.78394   2.78926   2.79881
 Alpha virt. eigenvalues --    2.84540   2.85021   2.86422   2.92270   2.96093
 Alpha virt. eigenvalues --    2.99354   3.00055   3.01380   3.04428   3.04849
 Alpha virt. eigenvalues --    3.08617   3.10283   3.14462   3.15981   3.21342
 Alpha virt. eigenvalues --    3.23635   3.23769   3.24575   3.30681   3.31486
 Alpha virt. eigenvalues --    3.34382   3.36688   3.40543   3.44887   3.47372
 Alpha virt. eigenvalues --    3.52515   3.56855   3.75961   3.77093   3.77216
 Alpha virt. eigenvalues --    3.82055   3.85024   4.00194   4.06839   4.08957
 Alpha virt. eigenvalues --    4.11938   4.15705   4.23904   4.30512   4.60736
 Alpha virt. eigenvalues --    5.01675   5.02471   5.41536   5.43045   5.76711
 Alpha virt. eigenvalues --    5.81836   8.02335   8.03109  17.29228  17.30780
 Alpha virt. eigenvalues --   17.48496  17.51090  17.54751  17.58867  23.52690
 Alpha virt. eigenvalues --   23.73087  23.81280  23.84952  23.90861  23.91785
 Alpha virt. eigenvalues --   24.04933  24.05540  24.16237  24.17070  49.96961
 Alpha virt. eigenvalues --   49.97596 189.19214 189.20293
          Condensed to atoms (all electrons):
               1          2          3          4          5          6
     1  C    9.024026   1.190513  -1.723820  -0.271225  -0.520898   0.004614
     2  C    1.190513   9.816029  -2.493034  -0.050663   0.140934  -0.130177
     3  C   -1.723820  -2.493034  11.746438  -0.082098   0.184669   0.465410
     4  C   -0.271225  -0.050663  -0.082098   6.275609  -0.035315   0.016955
     5  S   -0.520898   0.140934   0.184669  -0.035315  17.247131   0.013871
     6  H    0.004614  -0.130177   0.465410   0.016955   0.013871   0.539631
     7  H    0.031306  -0.070904   0.080725   0.320979  -0.017126  -0.005630
     8  C    0.382503  -1.418544  -1.305739   0.014286  -0.618561  -0.009796
     9  C   -0.972165  -0.721556  -0.034533  -0.077088  -0.298581   0.000905
    10  S   -0.667152  -0.377411  -0.104055   0.068009   0.116270  -0.001843
    11  C   -0.771939   0.069335  -0.134780   0.010538  -0.061374   0.000001
    12  C    0.137070  -0.046671   0.018865  -0.009885   0.064292   0.000061
    13  H   -0.003380   0.001715   0.000046   0.000085  -0.001689   0.000000
    14  H    0.007045   0.007051   0.000321   0.000035  -0.000897   0.000000
    15  O   -0.205836   0.380954  -0.054013   0.050611   0.039109  -0.015543
    16  O   -0.236631  -0.041149  -0.005706   0.011912  -0.023012   0.000030
    17  C   -0.125040  -0.052439   0.000930   0.004148  -0.014001  -0.000010
    18  H   -0.002354   0.000789   0.000114  -0.000413  -0.002707   0.000000
    19  H    0.009347   0.000549  -0.000148   0.000860  -0.000247   0.000000
    20  H   -0.002362   0.000789   0.000114  -0.000413  -0.002706   0.000000
    21  C    0.040117   0.060435  -0.178762  -0.054881   0.057718  -0.002685
    22  H   -0.011061  -0.059393   0.065916   0.001908   0.000615  -0.001009
    23  H    0.006051   0.037861  -0.026553  -0.000039  -0.000676   0.000454
    24  H   -0.011077  -0.059393   0.065945   0.001916   0.000615  -0.001008
               7          8          9         10         11         12
     1  C    0.031306   0.382503  -0.972165  -0.667152  -0.771939   0.137070
     2  C   -0.070904  -1.418544  -0.721556  -0.377411   0.069335  -0.046671
     3  C    0.080725  -1.305739  -0.034533  -0.104055  -0.134780   0.018865
     4  C    0.320979   0.014286  -0.077088   0.068009   0.010538  -0.009885
     5  S   -0.017126  -0.618561  -0.298581   0.116270  -0.061374   0.064292
     6  H   -0.005630  -0.009796   0.000905  -0.001843   0.000001   0.000061
     7  H    0.494594   0.006592   0.006385  -0.001003   0.000298   0.000028
     8  C    0.006592   9.562050   1.189724  -0.436158  -1.515323  -0.181729
     9  C    0.006385   1.189724   9.176945   0.254241  -2.480911   0.035755
    10  S   -0.001003  -0.436158   0.254241  17.292467   0.101306  -0.007677
    11  C    0.000298  -1.515323  -2.480911   0.101306  11.172943  -0.229947
    12  C    0.000028  -0.181729   0.035755  -0.007677  -0.229947   6.067236
    13  H    0.000000   0.011378  -0.133620   0.012779   0.455409   0.017652
    14  H    0.000000   0.028854  -0.072575  -0.015218   0.076713   0.325655
    15  O   -0.000419  -0.279217  -0.041612  -0.028767  -0.002393   0.008562
    16  O   -0.000027  -0.186213   0.329204   0.046345  -0.092626   0.043113
    17  C   -0.000073   0.075120   0.067999   0.058051  -0.221405  -0.039850
    18  H    0.000000  -0.006608  -0.049902   0.000595   0.052690   0.000753
    19  H   -0.000001   0.000850   0.031772  -0.000589  -0.014263   0.000483
    20  H    0.000000  -0.006618  -0.049906   0.000595   0.052714   0.000758
    21  C    0.000846  -0.120092  -0.042130  -0.018478   0.001956   0.004260
    22  H    0.000041  -0.005575   0.000498  -0.003168   0.000094  -0.000358
    23  H   -0.000001   0.012728   0.000923   0.001460  -0.000005   0.000663
    24  H    0.000041  -0.005588   0.000498  -0.003167   0.000094  -0.000358
              13         14         15         16         17         18
     1  C   -0.003380   0.007045  -0.205836  -0.236631  -0.125040  -0.002354
     2  C    0.001715   0.007051   0.380954  -0.041149  -0.052439   0.000789
     3  C    0.000046   0.000321  -0.054013  -0.005706   0.000930   0.000114
     4  C    0.000085   0.000035   0.050611   0.011912   0.004148  -0.000413
     5  S   -0.001689  -0.000897   0.039109  -0.023012  -0.014001  -0.002707
     6  H    0.000000   0.000000  -0.015543   0.000030  -0.000010   0.000000
     7  H    0.000000   0.000000  -0.000419  -0.000027  -0.000073   0.000000
     8  C    0.011378   0.028854  -0.279217  -0.186213   0.075120  -0.006608
     9  C   -0.133620  -0.072575  -0.041612   0.329204   0.067999  -0.049902
    10  S    0.012779  -0.015218  -0.028767   0.046345   0.058051   0.000595
    11  C    0.455409   0.076713  -0.002393  -0.092626  -0.221405   0.052690
    12  C    0.017652   0.325655   0.008562   0.043113  -0.039850   0.000753
    13  H    0.533971  -0.005280   0.000016  -0.011906  -0.003278  -0.000607
    14  H   -0.005280   0.492209  -0.000032  -0.000352   0.000752   0.000035
    15  O    0.000016  -0.000032   8.225542  -0.001264  -0.000663   0.000001
    16  O   -0.011906  -0.000352  -0.001264   8.249921   0.192012  -0.044081
    17  C   -0.003278   0.000752  -0.000663   0.192012   5.057095   0.418821
    18  H   -0.000607   0.000035   0.000001  -0.044081   0.418821   0.570285
    19  H    0.000260  -0.000001  -0.000002  -0.058611   0.400222  -0.028322
    20  H   -0.000607   0.000035   0.000001  -0.044089   0.418815  -0.050616
    21  C   -0.000007  -0.000043   0.201144  -0.000723  -0.001049   0.000000
    22  H    0.000000   0.000000  -0.040918   0.000000  -0.000001  -0.000000
    23  H    0.000000  -0.000001  -0.062779  -0.000002   0.000000   0.000000
    24  H    0.000000   0.000000  -0.040931   0.000000  -0.000001   0.000000
              19         20         21         22         23         24
     1  C    0.009347  -0.002362   0.040117  -0.011061   0.006051  -0.011077
     2  C    0.000549   0.000789   0.060435  -0.059393   0.037861  -0.059393
     3  C   -0.000148   0.000114  -0.178762   0.065916  -0.026553   0.065945
     4  C    0.000860  -0.000413  -0.054881   0.001908  -0.000039   0.001916
     5  S   -0.000247  -0.002706   0.057718   0.000615  -0.000676   0.000615
     6  H    0.000000   0.000000  -0.002685  -0.001009   0.000454  -0.001008
     7  H   -0.000001   0.000000   0.000846   0.000041  -0.000001   0.000041
     8  C    0.000850  -0.006618  -0.120092  -0.005575   0.012728  -0.005588
     9  C    0.031772  -0.049906  -0.042130   0.000498   0.000923   0.000498
    10  S   -0.000589   0.000595  -0.018478  -0.003168   0.001460  -0.003167
    11  C   -0.014263   0.052714   0.001956   0.000094  -0.000005   0.000094
    12  C    0.000483   0.000758   0.004260  -0.000358   0.000663  -0.000358
    13  H    0.000260  -0.000607  -0.000007   0.000000   0.000000   0.000000
    14  H   -0.000001   0.000035  -0.000043   0.000000  -0.000001   0.000000
    15  O   -0.000002   0.000001   0.201144  -0.040918  -0.062779  -0.040931
    16  O   -0.058611  -0.044089  -0.000723   0.000000  -0.000002   0.000000
    17  C    0.400222   0.418815  -0.001049  -0.000001   0.000000  -0.000001
    18  H   -0.028322  -0.050616   0.000000  -0.000000   0.000000   0.000000
    19  H    0.524586  -0.028322  -0.000001   0.000000  -0.000000   0.000000
    20  H   -0.028322   0.570294   0.000000   0.000000   0.000000  -0.000000
    21  C   -0.000001   0.000000   5.059943   0.419878   0.398176   0.419873
    22  H    0.000000   0.000000   0.419878   0.568646  -0.028259  -0.050717
    23  H   -0.000000   0.000000   0.398176  -0.028259   0.524460  -0.028259
    24  H    0.000000  -0.000000   0.419873  -0.050717  -0.028259   0.568660
 Mulliken charges:
               1
     1  C    0.692348
     2  C   -0.185621
     3  C   -0.486250
     4  C   -0.195832
     5  S   -0.267432
     6  H    0.125768
     7  H    0.153350
     8  C    0.811672
     9  C   -0.120273
    10  S   -0.287431
    11  C   -0.469125
    12  C   -0.208729
    13  H    0.127064
    14  H    0.155694
    15  O   -0.131548
    16  O   -0.126145
    17  C   -0.236157
    18  H    0.141527
    19  H    0.161576
    20  H    0.141524
    21  C   -0.245497
    22  H    0.142863
    23  H    0.163796
    24  H    0.142859
 Sum of Mulliken charges =  -0.00000
 Mulliken charges with hydrogens summed into heavy atoms:
               1
     1  C    0.692348
     2  C   -0.185621
     3  C   -0.360483
     4  C   -0.042482
     5  S   -0.267432
     8  C    0.811672
     9  C   -0.120273
    10  S   -0.287431
    11  C   -0.342061
    12  C   -0.053034
    15  O   -0.131548
    16  O   -0.126145
    17  C    0.208470
    21  C    0.204021
 Electronic spatial extent (au):  <R**2>=           3539.9556
 Charge=              0.0000 electrons
 Dipole moment (field-independent basis, Debye):
    X=              0.0023    Y=             -0.0815    Z=              0.0002  Tot=              0.0815
 Quadrupole moment (field-independent basis, Debye-Ang):
   XX=            -70.7427   YY=            -90.5928   ZZ=           -102.0068
   XY=             -2.9358   XZ=             -0.0001   YZ=              0.0001
 Traceless Quadrupole moment (field-independent basis, Debye-Ang):
   XX=             17.0381   YY=             -2.8120   ZZ=            -14.2261
   XY=             -2.9358   XZ=             -0.0001   YZ=              0.0001
 Octapole moment (field-independent basis, Debye-Ang**2):
  XXX=             -2.6846  YYY=             -1.1717  ZZZ=              0.0003  XYY=              0.8726
  XXY=              0.5816  XXZ=              0.0016  XZZ=             -0.3198  YZZ=             -0.1041
  YYZ=              0.0006  XYZ=             -0.0011
 Hexadecapole moment (field-independent basis, Debye-Ang**3):
 XXXX=          -2562.8460 YYYY=          -1575.4392 ZZZZ=           -136.9761 XXXY=           -129.4845
 XXXZ=             -0.0001 YYYX=              1.0821 YYYZ=             -0.0001 ZZZX=              0.0002
 ZZZY=             -0.0003 XXYY=           -669.6188 XXZZ=           -543.7685 YYZZ=           -335.8055
 XXYZ=              0.0006 YYXZ=             -0.0002 ZZXY=            -30.9179
 N-N= 1.103519233946D+03 E-N=-5.354963929205D+03  KE= 1.330738551162D+03
 1\1\GINC-CX1-141-15-4\Scan\RB3LYP\6-311+G(d,p)\C10H10O2S2\NS5018\07-Fe
 b-2020\0\\# opt=modredundant b3lyp/6-311+g(d,p) geom=connectivity\\Tit
 le Card Required\\0,1\C,-0.579002426,-0.3904697603,0.0001367029\C,-1.8
 865121911,0.0693689166,0.00013462\C,-2.8382693331,-1.0040344304,0.0001
 373667\C,-2.25867696,-2.2375260545,0.0001405924\S,-0.5370901333,-2.144
 4153471,0.0001387863\H,-3.9092543906,-0.8646922161,0.0001356257\H,-2.7
 466773047,-3.1998767254,0.0001426616\C,0.6244934996,0.4120582864,0.000
 1371881\C,1.9439930993,-0.0113967132,0.0001406235\S,0.5786121407,2.169
 7029614,0.0001358979\C,2.8979476703,1.0465768094,0.0001444109\C,2.3020
 253026,2.2758524122,0.0001431697\H,3.9690128564,0.9054703225,0.0001473
 749\H,2.7794434737,3.2434409331,0.000145052\O,-2.2691000816,1.37486794
 65,0.0001237737\O,2.221200542,-1.3468966957,0.000134874\C,3.5859239515
 ,-1.7450708407,0.0001994803\H,4.1043225237,-1.3849959922,0.8953594789\
 H,3.5804489903,-2.8338901285,0.0002095958\H,4.1044023274,-1.3850145913
 ,-0.8949219084\C,-3.654702253,1.6855302305,0.000214607\H,-4.1504489456
 ,1.2962914615,0.8955826822\H,-3.7115300494,2.7728074112,0.0002290184\H
 ,-4.1505623087,1.2963118041,-0.8950996744\\Version=ES64L-G16RevA.03\St
 ate=1-A\HF=-1334.0517273,-1334.0517241,-1334.051713,-1334.0516942,-133
 4.051668,-1334.0516343,-1334.0515932,-1334.0515446,-1334.0514886,-1334
 .0514253,-1334.0513545,-1334.0512764,-1334.0511909,-1334.0510981,-1334
 .050998,-1334.0508905,-1334.0507759,-1334.0506539,-1334.0505246,-1334.
 0503881,-1334.0502444,-1334.0500934,-1334.0499352,-1334.0497698,-1334.
 0495972,-1334.0494175\RMSD=5.451e-09,5.765e-09,9.688e-09,9.757e-09,3.5
 42e-09,9.424e-09,3.480e-09,8.761e-09,3.699e-09,8.653e-09,9.671e-09,8.5
 92e-09,9.163e-09,9.393e-09,8.316e-09,4.060e-09,8.629e-09,8.243e-09,8.1
 84e-09,8.152e-09,8.088e-09,7.996e-09,7.928e-09,7.854e-09,7.738e-09,7.6
 46e-09\PG=C01 [X(C10H10O2S2)]\\@


    UPON JULIA'S CLOTHES

 WHENAS IN SILKS MY JULIA GOES,
 THEN, THEN, METHINKS, HOW SWEETLY FLOWS
 THAT LIQUEFACTION OF HER CLOTHES.

 NEXT, WHEN I CAST MINE EYES, AND SEE
 THAT BRAVE VIBRATION, EACH WAY FREE,
 O, HOW THAT GLITTERING TAKETH ME!
     -- ROBERT HERRICK, 1648
 Job cpu time:       0 days 11 hours 41 minutes 18.7 seconds.
 Elapsed time:       0 days  1 hours 27 minutes 44.1 seconds.
 File lengths (MBytes):  RWF=     97 Int=      0 D2E=      0 Chk=     16 Scr=      1
 Normal termination of Gaussian 16 at Fri Feb  7 00:50:16 2020.
