 Entering Gaussian System, Link 0=g16
 Input=wb97xd_no_methyl.gjf
 Output=wb97xd_no_methyl.log
 Initial command:
 /apps/gaussian/g16-a03/l1.exe "/tmp/pbs.1042531[3].pbs/Gau-16265.inp" -scrdir="/tmp/pbs.1042531[3].pbs/"
 Entering Link 1 = /apps/gaussian/g16-a03/l1.exe PID=     16266.
  
 Copyright (c) 1988,1990,1992,1993,1995,1998,2003,2009,2016,
            Gaussian, Inc.  All Rights Reserved.
  
 This is part of the Gaussian(R) 16 program.  It is based on
 the Gaussian(R) 09 system (copyright 2009, Gaussian, Inc.),
 the Gaussian(R) 03 system (copyright 2003, Gaussian, Inc.),
 the Gaussian(R) 98 system (copyright 1998, Gaussian, Inc.),
 the Gaussian(R) 94 system (copyright 1995, Gaussian, Inc.),
 the Gaussian 92(TM) system (copyright 1992, Gaussian, Inc.),
 the Gaussian 90(TM) system (copyright 1990, Gaussian, Inc.),
 the Gaussian 88(TM) system (copyright 1988, Gaussian, Inc.),
 the Gaussian 86(TM) system (copyright 1986, Carnegie Mellon
 University), and the Gaussian 82(TM) system (copyright 1983,
 Carnegie Mellon University). Gaussian is a federally registered
 trademark of Gaussian, Inc.
  
 This software contains proprietary and confidential information,
 including trade secrets, belonging to Gaussian, Inc.
  
 This software is provided under written license and may be
 used, copied, transmitted, or stored only in accord with that
 written license.
  
 The following legend is applicable only to US Government
 contracts under FAR:
  
                    RESTRICTED RIGHTS LEGEND
  
 Use, reproduction and disclosure by the US Government is
 subject to restrictions as set forth in subparagraphs (a)
 and (c) of the Commercial Computer Software - Restricted
 Rights clause in FAR 52.227-19.
  
 Gaussian, Inc.
 340 Quinnipiac St., Bldg. 40, Wallingford CT 06492
  
  
 ---------------------------------------------------------------
 Warning -- This program may not be used in any manner that
 competes with the business of Gaussian, Inc. or will provide
 assistance to any competitor of Gaussian, Inc.  The licensee
 of this program is prohibited from giving any competitor of
 Gaussian, Inc. access to this program.  By using this program,
 the user acknowledges that Gaussian, Inc. is engaged in the
 business of creating and licensing software in the field of
 computational chemistry and represents and warrants to the
 licensee that it is not a competitor of Gaussian, Inc. and that
 it will not use this program in any manner prohibited above.
 ---------------------------------------------------------------
  

 Cite this work as:
 Gaussian 16, Revision A.03,
 M. J. Frisch, G. W. Trucks, H. B. Schlegel, G. E. Scuseria, 
 M. A. Robb, J. R. Cheeseman, G. Scalmani, V. Barone, 
 G. A. Petersson, H. Nakatsuji, X. Li, M. Caricato, A. V. Marenich, 
 J. Bloino, B. G. Janesko, R. Gomperts, B. Mennucci, H. P. Hratchian, 
 J. V. Ortiz, A. F. Izmaylov, J. L. Sonnenberg, D. Williams-Young, 
 F. Ding, F. Lipparini, F. Egidi, J. Goings, B. Peng, A. Petrone, 
 T. Henderson, D. Ranasinghe, V. G. Zakrzewski, J. Gao, N. Rega, 
 G. Zheng, W. Liang, M. Hada, M. Ehara, K. Toyota, R. Fukuda, 
 J. Hasegawa, M. Ishida, T. Nakajima, Y. Honda, O. Kitao, H. Nakai, 
 T. Vreven, K. Throssell, J. A. Montgomery, Jr., J. E. Peralta, 
 F. Ogliaro, M. J. Bearpark, J. J. Heyd, E. N. Brothers, K. N. Kudin, 
 V. N. Staroverov, T. A. Keith, R. Kobayashi, J. Normand, 
 K. Raghavachari, A. P. Rendell, J. C. Burant, S. S. Iyengar, 
 J. Tomasi, M. Cossi, J. M. Millam, M. Klene, C. Adamo, R. Cammi, 
 J. W. Ochterski, R. L. Martin, K. Morokuma, O. Farkas, 
 J. B. Foresman, and D. J. Fox, Gaussian, Inc., Wallingford CT, 2016.
 
 ******************************************
 Gaussian 16:  ES64L-G16RevA.03 25-Dec-2016
                 7-Feb-2020 
 ******************************************
 %mem=10GB
 %nprocshared=8
 Will use up to    8 processors via shared memory.
 %chk=temp.chk
 --------------------------------------------------------
 # opt=modredundant wb97xd/6-311+g(d,p) geom=connectivity
 --------------------------------------------------------
 1/18=120,19=15,26=3,38=1,57=2/1,3;
 2/9=110,12=2,17=6,18=5,40=1/2;
 3/5=4,6=6,7=111,11=2,25=1,30=1,71=1,74=-58/1,2,3;
 4//1;
 5/5=2,38=5/2;
 6/7=2,8=2,9=2,10=2,28=1/1;
 7//1,2,3,16;
 1/18=20,19=15,26=3/3(2);
 2/9=110/2;
 99//99;
 2/9=110/2;
 3/5=4,6=6,7=111,11=2,25=1,30=1,71=1,74=-58/1,2,3;
 4/5=5,16=3,69=1/1;
 5/5=2,38=5/2;
 7//1,2,3,16;
 1/18=20,19=15,26=3/3(-5);
 2/9=110/2;
 6/7=2,8=2,9=2,10=2,19=2,28=1/1;
 99/9=1/99;
 -------------------
 Title Card Required
 -------------------
 Symbolic Z-matrix:
 Charge =  0 Multiplicity = 1
 C                    -0.59366  -0.41063  -0.00009 
 C                    -1.91734   0.00391  -0.00003 
 C                    -2.86398  -1.05921  -0.00001 
 C                    -2.25936  -2.2846   -0.0001 
 S                    -0.53724  -2.16837  -0.00024 
 H                    -3.93604  -0.92509   0.00005 
 H                    -2.73094  -3.25516  -0.00012 
 C                     0.59366   0.41063  -0.00009 
 C                     1.91734  -0.00391  -0.00002 
 S                     0.53724   2.16837  -0.00025 
 C                     2.86398   1.05921  -0.00001 
 C                     2.25936   2.2846   -0.0001 
 H                     3.93604   0.92509   0.00006 
 H                     2.73094   3.25516  -0.00012 
 O                    -2.20249   1.33737   0.00001 
 O                     2.20249  -1.33737   0.00002 
 H                    -3.12567   1.6007    0.00036 
 H                     3.12567  -1.6007    0.00036 
 
 The following ModRedundant input section has been read:
 A       1       2      15 S  25 0.2500                                        
 

 GradGradGradGradGradGradGradGradGradGradGradGradGradGradGradGradGradGrad
 Berny optimization.
 Initialization pass.
                           ----------------------------
                           !    Initial Parameters    !
                           ! (Angstroms and Degrees)  !
 --------------------------                            --------------------------
 ! Name  Definition              Value          Derivative Info.                !
 --------------------------------------------------------------------------------
 ! R1    R(1,2)                  1.3871         estimate D2E/DX2                !
 ! R2    R(1,5)                  1.7586         estimate D2E/DX2                !
 ! R3    R(1,8)                  1.4437         estimate D2E/DX2                !
 ! R4    R(2,3)                  1.4235         estimate D2E/DX2                !
 ! R5    R(2,15)                 1.3636         estimate D2E/DX2                !
 ! R6    R(3,4)                  1.3664         estimate D2E/DX2                !
 ! R7    R(3,6)                  1.0804         estimate D2E/DX2                !
 ! R8    R(4,5)                  1.726          estimate D2E/DX2                !
 ! R9    R(4,7)                  1.0791         estimate D2E/DX2                !
 ! R10   R(8,9)                  1.3871         estimate D2E/DX2                !
 ! R11   R(8,10)                 1.7586         estimate D2E/DX2                !
 ! R12   R(9,11)                 1.4235         estimate D2E/DX2                !
 ! R13   R(9,16)                 1.3636         estimate D2E/DX2                !
 ! R14   R(10,12)                1.726          estimate D2E/DX2                !
 ! R15   R(11,12)                1.3664         estimate D2E/DX2                !
 ! R16   R(11,13)                1.0804         estimate D2E/DX2                !
 ! R17   R(12,14)                1.0791         estimate D2E/DX2                !
 ! R18   R(15,17)                0.96           estimate D2E/DX2                !
 ! R19   R(16,18)                0.96           estimate D2E/DX2                !
 ! A1    A(2,1,5)              109.228          estimate D2E/DX2                !
 ! A2    A(2,1,8)              127.9393         estimate D2E/DX2                !
 ! A3    A(5,1,8)              122.8328         estimate D2E/DX2                !
 ! A4    A(1,2,3)              114.2937         estimate D2E/DX2                !
 ! A5    A(1,2,15)             119.46           Scan                            !
 ! A6    A(3,2,15)             126.2463         estimate D2E/DX2                !
 ! A7    A(2,3,4)              112.0548         estimate D2E/DX2                !
 ! A8    A(2,3,6)              124.5521         estimate D2E/DX2                !
 ! A9    A(4,3,6)              123.3931         estimate D2E/DX2                !
 ! A10   A(3,4,5)              112.4009         estimate D2E/DX2                !
 ! A11   A(3,4,7)              127.8234         estimate D2E/DX2                !
 ! A12   A(5,4,7)              119.7757         estimate D2E/DX2                !
 ! A13   A(1,5,4)               92.0227         estimate D2E/DX2                !
 ! A14   A(1,8,9)              127.9393         estimate D2E/DX2                !
 ! A15   A(1,8,10)             122.8328         estimate D2E/DX2                !
 ! A16   A(9,8,10)             109.228          estimate D2E/DX2                !
 ! A17   A(8,9,11)             114.2937         estimate D2E/DX2                !
 ! A18   A(8,9,16)             119.46           estimate D2E/DX2                !
 ! A19   A(11,9,16)            126.2463         estimate D2E/DX2                !
 ! A20   A(8,10,12)             92.0227         estimate D2E/DX2                !
 ! A21   A(9,11,12)            112.0548         estimate D2E/DX2                !
 ! A22   A(9,11,13)            124.5521         estimate D2E/DX2                !
 ! A23   A(12,11,13)           123.3931         estimate D2E/DX2                !
 ! A24   A(10,12,11)           112.4009         estimate D2E/DX2                !
 ! A25   A(10,12,14)           119.7757         estimate D2E/DX2                !
 ! A26   A(11,12,14)           127.8234         estimate D2E/DX2                !
 ! A27   A(2,15,17)            117.9908         estimate D2E/DX2                !
 ! A28   A(9,16,18)            117.9908         estimate D2E/DX2                !
 ! D1    D(5,1,2,3)              0.0042         estimate D2E/DX2                !
 ! D2    D(5,1,2,15)          -179.9959         estimate D2E/DX2                !
 ! D3    D(8,1,2,3)           -179.9984         estimate D2E/DX2                !
 ! D4    D(8,1,2,15)             0.0015         estimate D2E/DX2                !
 ! D5    D(2,1,5,4)             -0.0042         estimate D2E/DX2                !
 ! D6    D(8,1,5,4)            179.9983         estimate D2E/DX2                !
 ! D7    D(2,1,8,9)            179.9937         estimate D2E/DX2                !
 ! D8    D(2,1,8,10)            -0.0091         estimate D2E/DX2                !
 ! D9    D(5,1,8,9)             -0.0093         estimate D2E/DX2                !
 ! D10   D(5,1,8,10)           179.9879         estimate D2E/DX2                !
 ! D11   D(1,2,3,4)             -0.0018         estimate D2E/DX2                !
 ! D12   D(1,2,3,6)            179.9988         estimate D2E/DX2                !
 ! D13   D(15,2,3,4)           179.9983         estimate D2E/DX2                !
 ! D14   D(15,2,3,6)            -0.0011         estimate D2E/DX2                !
 ! D15   D(1,2,15,17)         -179.9784         estimate D2E/DX2                !
 ! D16   D(3,2,15,17)            0.0215         estimate D2E/DX2                !
 ! D17   D(2,3,4,5)             -0.0015         estimate D2E/DX2                !
 ! D18   D(2,3,4,7)           -179.9988         estimate D2E/DX2                !
 ! D19   D(6,3,4,5)            179.9978         estimate D2E/DX2                !
 ! D20   D(6,3,4,7)              0.0006         estimate D2E/DX2                !
 ! D21   D(3,4,5,1)              0.0033         estimate D2E/DX2                !
 ! D22   D(7,4,5,1)           -179.9992         estimate D2E/DX2                !
 ! D23   D(1,8,9,11)          -179.9983         estimate D2E/DX2                !
 ! D24   D(1,8,9,16)             0.0014         estimate D2E/DX2                !
 ! D25   D(10,8,9,11)            0.0041         estimate D2E/DX2                !
 ! D26   D(10,8,9,16)         -179.9961         estimate D2E/DX2                !
 ! D27   D(1,8,10,12)          179.9982         estimate D2E/DX2                !
 ! D28   D(9,8,10,12)           -0.0042         estimate D2E/DX2                !
 ! D29   D(8,9,11,12)           -0.0018         estimate D2E/DX2                !
 ! D30   D(8,9,11,13)          179.9988         estimate D2E/DX2                !
 ! D31   D(16,9,11,12)         179.9985         estimate D2E/DX2                !
 ! D32   D(16,9,11,13)          -0.001          estimate D2E/DX2                !
 ! D33   D(8,9,16,18)         -179.9802         estimate D2E/DX2                !
 ! D34   D(11,9,16,18)           0.0196         estimate D2E/DX2                !
 ! D35   D(8,10,12,11)           0.0033         estimate D2E/DX2                !
 ! D36   D(8,10,12,14)        -179.9992         estimate D2E/DX2                !
 ! D37   D(9,11,12,10)          -0.0015         estimate D2E/DX2                !
 ! D38   D(9,11,12,14)        -179.9988         estimate D2E/DX2                !
 ! D39   D(13,11,12,10)        179.9979         estimate D2E/DX2                !
 ! D40   D(13,11,12,14)          0.0007         estimate D2E/DX2                !
 --------------------------------------------------------------------------------
 Trust Radius=3.00D-01 FncErr=1.00D-07 GrdErr=1.00D-06 EigMax=2.50D+02 EigMin=1.00D-04
 Number of optimizations in scan=  26
 Number of steps in this run=     97 maximum allowed number of steps=    108.
 GradGradGradGradGradGradGradGradGradGradGradGradGradGradGradGradGradGrad

                          Input orientation:                          
 ---------------------------------------------------------------------
 Center     Atomic      Atomic             Coordinates (Angstroms)
 Number     Number       Type             X           Y           Z
 ---------------------------------------------------------------------
      1          6           0       -0.593663   -0.410632   -0.000087
      2          6           0       -1.917339    0.003914   -0.000030
      3          6           0       -2.863983   -1.059207   -0.000012
      4          6           0       -2.259364   -2.284600   -0.000096
      5         16           0       -0.537240   -2.168368   -0.000240
      6          1           0       -3.936038   -0.925086    0.000049
      7          1           0       -2.730943   -3.255156   -0.000122
      8          6           0        0.593663    0.410632   -0.000087
      9          6           0        1.917339   -0.003914   -0.000023
     10         16           0        0.537240    2.168368   -0.000245
     11          6           0        2.863983    1.059207   -0.000005
     12          6           0        2.259364    2.284600   -0.000095
     13          1           0        3.936038    0.925086    0.000062
     14          1           0        2.730943    3.255156   -0.000122
     15          8           0       -2.202491    1.337369    0.000005
     16          8           0        2.202491   -1.337369    0.000021
     17          1           0       -3.125670    1.600696    0.000364
     18          1           0        3.125670   -1.600696    0.000359
 ---------------------------------------------------------------------
                    Distance matrix (angstroms):
                    1          2          3          4          5
     1  C    0.000000
     2  C    1.387071   0.000000
     3  C    2.361144   1.423503   0.000000
     4  C    2.507253   2.313931   1.366438   0.000000
     5  S    1.758641   2.573613   2.577590   1.726042   0.000000
     6  H    3.381735   2.222203   1.080412   2.158591   3.619058
     7  H    3.557989   3.359090   2.199975   1.079058   2.448151
     8  C    1.443682   2.543728   3.757092   3.924798   2.816058
     9  C    2.543728   3.834686   4.896395   4.758821   3.272586
    10  S    2.816058   3.272586   4.688876   5.258319   4.467862
    11  C    3.757092   4.896395   6.107149   6.117984   4.688876
    12  C    3.924798   4.758821   6.117984   6.426235   5.258319
    13  H    4.722535   5.925418   7.083622   6.977470   5.438720
    14  H    4.948839   5.672486   7.065191   7.456008   6.332111
    15  O    2.375676   1.363603   2.486192   3.622415   3.881141
    16  O    2.945729   4.332671   5.074104   4.561293   2.862985
    17  H    3.233651   2.002442   2.672745   3.980705   4.572287
    18  H    3.905085   5.292137   6.014079   5.428288   3.706637
                    6          7          8          9         10
     6  H    0.000000
     7  H    2.623258   0.000000
     8  C    4.722535   4.948839   0.000000
     9  C    5.925418   5.672486   1.387071   0.000000
    10  S    5.438720   6.332111   1.758641   2.573613   0.000000
    11  C    7.083622   7.065191   2.361144   1.423503   2.577590
    12  C    6.977470   7.456008   2.507253   2.313931   1.726042
    13  H    8.086576   7.869121   3.381735   2.222203   3.619058
    14  H    7.869121   8.498021   3.557989   3.359090   2.448151
    15  O    2.850243   4.622829   2.945729   4.332671   2.862985
    16  O    6.152359   5.293078   2.375676   1.363603   3.881141
    17  H    2.652597   4.871869   3.905085   5.292137   3.706637
    18  H    7.093953   6.085816   3.233651   2.002442   4.572287
                   11         12         13         14         15
    11  C    0.000000
    12  C    1.366438   0.000000
    13  H    1.080412   2.158591   0.000000
    14  H    2.199975   1.079058   2.623258   0.000000
    15  O    5.074104   4.561293   6.152359   5.293078   0.000000
    16  O    2.486192   3.622415   2.850243   4.622829   5.153454
    17  H    6.014079   5.428288   7.093953   6.085816   0.960000
    18  H    2.672745   3.980705   2.652597   4.871869   6.084531
                   16         17         18
    16  O    0.000000
    17  H    6.084531   0.000000
    18  H    0.960000   7.023400   0.000000
 Stoichiometry    C8H6O2S2
 Framework group  C1[X(C8H6O2S2)]
 Deg. of freedom    48
 Full point group                 C1      NOp   1
 Largest Abelian subgroup         C1      NOp   1
 Largest concise Abelian subgroup C1      NOp   1
                         Standard orientation:                         
 ---------------------------------------------------------------------
 Center     Atomic      Atomic             Coordinates (Angstroms)
 Number     Number       Type             X           Y           Z
 ---------------------------------------------------------------------
      1          6           0        0.721800   -0.007662    0.000007
      2          6           0        1.562949   -1.110583    0.000064
      3          6           0        2.949758   -0.789458    0.000082
      4          6           0        3.163925    0.560092   -0.000002
      5         16           0        1.690946    1.459845   -0.000146
      6          1           0        3.747461   -1.518128    0.000143
      7          1           0        4.109455    1.080033   -0.000028
      8          6           0       -0.721800    0.007662    0.000007
      9          6           0       -1.562949    1.110583    0.000071
     10         16           0       -1.690946   -1.459845   -0.000151
     11          6           0       -2.949758    0.789458    0.000089
     12          6           0       -3.163925   -0.560092   -0.000001
     13          1           0       -3.747461    1.518128    0.000156
     14          1           0       -4.109455   -1.080033   -0.000028
     15          8           0        1.025574   -2.363836    0.000099
     16          8           0       -1.025574    2.363836    0.000115
     17          1           0        1.627118   -3.111997    0.000457
     18          1           0       -1.627118    3.111997    0.000453
 ---------------------------------------------------------------------
 Rotational constants (GHZ):           1.2851131           0.6279971           0.4218509
 Standard basis: 6-311+G(d,p) (5D, 7F)
 There are   328 symmetry adapted cartesian basis functions of A   symmetry.
 There are   316 symmetry adapted basis functions of A   symmetry.
   316 basis functions,   508 primitive gaussians,   328 cartesian basis functions
    51 alpha electrons       51 beta electrons
       nuclear repulsion energy       870.8463659266 Hartrees.
 NAtoms=   18 NActive=   18 NUniq=   18 SFac= 1.00D+00 NAtFMM=   60 NAOKFM=F Big=F
 Integral buffers will be    131072 words long.
 Raffenetti 2 integral format.
 Two-electron integral symmetry is turned on.
 Nuclear repulsion after empirical dispersion term =      870.8378873622 Hartrees.
 One-electron integrals computed using PRISM.
 NBasis=   316 RedAO= T EigKep=  1.77D-06  NBF=   316
 NBsUse=   315 1.00D-06 EigRej=  6.87D-07 NBFU=   315
 ExpMin= 4.05D-02 ExpMax= 9.34D+04 ExpMxC= 3.17D+03 IAcc=3 IRadAn=         5 AccDes= 0.00D+00
 Harris functional with IExCor= 4639 and IRadAn=       5 diagonalized for initial guess.
 HarFok:  IExCor= 4639 AccDes= 0.00D+00 IRadAn=         5 IDoV= 1 UseB2=F ITyADJ=14
 ICtDFT=  3500011 ScaDFX=  1.000000  1.000000  1.000000  1.000000
 FoFCou: FMM=F IPFlag=           0 FMFlag=      100000 FMFlg1=           0
         NFxFlg=           0 DoJE=T BraDBF=F KetDBF=T FulRan=T
         wScrn=  0.000000 ICntrl=       500 IOpCl=  0 I1Cent=   200000004 NGrid=           0
         NMat0=    1 NMatS0=      1 NMatT0=    0 NMatD0=    1 NMtDS0=    0 NMtDT0=    0
 Petite list used in FoFCou.
 Requested convergence on RMS density matrix=1.00D-08 within 128 cycles.
 Requested convergence on MAX density matrix=1.00D-06.
 Requested convergence on             energy=1.00D-06.
 No special actions if energy rises.
 SCF Done:  E(RwB97XD) =  -1255.23037867     A.U. after   15 cycles
            NFock= 15  Conv=0.79D-08     -V/T= 2.0023

 **********************************************************************

            Population analysis using the SCF density.

 **********************************************************************

 Orbital symmetries:
       Occupied  (A) (A) (A) (A) (A) (A) (A) (A) (A) (A) (A) (A)
                 (A) (A) (A) (A) (A) (A) (A) (A) (A) (A) (A) (A)
                 (A) (A) (A) (A) (A) (A) (A) (A) (A) (A) (A) (A)
                 (A) (A) (A) (A) (A) (A) (A) (A) (A) (A) (A) (A)
                 (A) (A) (A)
       Virtual   (A) (A) (A) (A) (A) (A) (A) (A) (A) (A) (A) (A)
                 (A) (A) (A) (A) (A) (A) (A) (A) (A) (A) (A) (A)
                 (A) (A) (A) (A) (A) (A) (A) (A) (A) (A) (A) (A)
                 (A) (A) (A) (A) (A) (A) (A) (A) (A) (A) (A) (A)
                 (A) (A) (A) (A) (A) (A) (A) (A) (A) (A) (A) (A)
                 (A) (A) (A) (A) (A) (A) (A) (A) (A) (A) (A) (A)
                 (A) (A) (A) (A) (A) (A) (A) (A) (A) (A) (A) (A)
                 (A) (A) (A) (A) (A) (A) (A) (A) (A) (A) (A) (A)
                 (A) (A) (A) (A) (A) (A) (A) (A) (A) (A) (A) (A)
                 (A) (A) (A) (A) (A) (A) (A) (A) (A) (A) (A) (A)
                 (A) (A) (A) (A) (A) (A) (A) (A) (A) (A) (A) (A)
                 (A) (A) (A) (A) (A) (A) (A) (A) (A) (A) (A) (A)
                 (A) (A) (A) (A) (A) (A) (A) (A) (A) (A) (A) (A)
                 (A) (A) (A) (A) (A) (A) (A) (A) (A) (A) (A) (A)
                 (A) (A) (A) (A) (A) (A) (A) (A) (A) (A) (A) (A)
                 (A) (A) (A) (A) (A) (A) (A) (A) (A) (A) (A) (A)
                 (A) (A) (A) (A) (A) (A) (A) (A) (A) (A) (A) (A)
                 (A) (A) (A) (A) (A) (A) (A) (A) (A) (A) (A) (A)
                 (A) (A) (A) (A) (A) (A) (A) (A) (A) (A) (A) (A)
                 (A) (A) (A) (A) (A) (A) (A) (A) (A) (A) (A) (A)
                 (A) (A) (A) (A) (A) (A) (A) (A) (A) (A) (A) (A)
                 (A) (A) (A) (A) (A) (A) (A) (A) (A) (A) (A) (A)
 The electronic state is 1-A.
 Alpha  occ. eigenvalues --  -89.04052 -89.04052 -19.28411 -19.28411 -10.35267
 Alpha  occ. eigenvalues --  -10.35266 -10.32076 -10.32038 -10.31369 -10.31369
 Alpha  occ. eigenvalues --  -10.29344 -10.29344  -8.08025  -8.08025  -6.02877
 Alpha  occ. eigenvalues --   -6.02877  -6.02482  -6.02482  -6.02105  -6.02105
 Alpha  occ. eigenvalues --   -1.17033  -1.16942  -0.98940  -0.97208  -0.86864
 Alpha  occ. eigenvalues --   -0.83303  -0.82516  -0.80288  -0.70233  -0.69989
 Alpha  occ. eigenvalues --   -0.68348  -0.64999  -0.62361  -0.57432  -0.56058
 Alpha  occ. eigenvalues --   -0.54998  -0.52246  -0.51710  -0.50834  -0.50075
 Alpha  occ. eigenvalues --   -0.45870  -0.45635  -0.45337  -0.43624  -0.43506
 Alpha  occ. eigenvalues --   -0.42021  -0.40781  -0.35710  -0.31337  -0.31265
 Alpha  occ. eigenvalues --   -0.25607
 Alpha virt. eigenvalues --    0.02463   0.05093   0.05841   0.06787   0.06816
 Alpha virt. eigenvalues --    0.07422   0.08547   0.09645   0.09750   0.10121
 Alpha virt. eigenvalues --    0.10556   0.11956   0.12060   0.12105   0.12189
 Alpha virt. eigenvalues --    0.13082   0.13398   0.14607   0.14712   0.15659
 Alpha virt. eigenvalues --    0.16649   0.17005   0.17493   0.17617   0.19176
 Alpha virt. eigenvalues --    0.19300   0.19981   0.19990   0.20138   0.21054
 Alpha virt. eigenvalues --    0.21717   0.22059   0.22062   0.22977   0.23473
 Alpha virt. eigenvalues --    0.23656   0.24215   0.24666   0.25111   0.25368
 Alpha virt. eigenvalues --    0.25392   0.25868   0.26130   0.26341   0.27890
 Alpha virt. eigenvalues --    0.28185   0.28627   0.30317   0.31196   0.31895
 Alpha virt. eigenvalues --    0.33025   0.33349   0.33369   0.33720   0.34309
 Alpha virt. eigenvalues --    0.35130   0.35879   0.36323   0.37824   0.38129
 Alpha virt. eigenvalues --    0.41328   0.41438   0.41887   0.42534   0.43231
 Alpha virt. eigenvalues --    0.44214   0.44476   0.45575   0.48199   0.50623
 Alpha virt. eigenvalues --    0.51756   0.54113   0.54416   0.55096   0.57347
 Alpha virt. eigenvalues --    0.57978   0.58250   0.60502   0.62809   0.62855
 Alpha virt. eigenvalues --    0.64924   0.64947   0.65293   0.66229   0.66356
 Alpha virt. eigenvalues --    0.68144   0.69305   0.70046   0.70494   0.72075
 Alpha virt. eigenvalues --    0.72173   0.74625   0.77348   0.78786   0.80141
 Alpha virt. eigenvalues --    0.81331   0.82634   0.83487   0.83875   0.84503
 Alpha virt. eigenvalues --    0.84666   0.86229   0.86421   0.86756   0.89353
 Alpha virt. eigenvalues --    0.90463   0.90797   0.92436   0.94118   0.95127
 Alpha virt. eigenvalues --    0.95927   0.96793   0.96919   0.98683   1.01773
 Alpha virt. eigenvalues --    1.05011   1.06306   1.07589   1.09255   1.09461
 Alpha virt. eigenvalues --    1.11729   1.12015   1.13715   1.13800   1.15034
 Alpha virt. eigenvalues --    1.15831   1.15879   1.16433   1.18597   1.21877
 Alpha virt. eigenvalues --    1.24193   1.25896   1.27294   1.32261   1.33205
 Alpha virt. eigenvalues --    1.33232   1.39134   1.41902   1.43949   1.44821
 Alpha virt. eigenvalues --    1.48510   1.49725   1.52322   1.54233   1.56935
 Alpha virt. eigenvalues --    1.61790   1.62872   1.63639   1.64729   1.66831
 Alpha virt. eigenvalues --    1.68339   1.70367   1.71887   1.73294   1.75006
 Alpha virt. eigenvalues --    1.75181   1.78673   1.83936   1.84894   1.85421
 Alpha virt. eigenvalues --    1.85938   1.86716   1.88980   1.89358   1.89478
 Alpha virt. eigenvalues --    1.95953   1.96176   1.96635   1.98864   2.01278
 Alpha virt. eigenvalues --    2.05576   2.06623   2.07354   2.10645   2.11504
 Alpha virt. eigenvalues --    2.12687   2.15125   2.16236   2.16849   2.18645
 Alpha virt. eigenvalues --    2.19085   2.20482   2.24451   2.25151   2.25215
 Alpha virt. eigenvalues --    2.26736   2.27492   2.31864   2.47700   2.49587
 Alpha virt. eigenvalues --    2.54084   2.60122   2.62891   2.66860   2.68845
 Alpha virt. eigenvalues --    2.70982   2.73117   2.75559   2.75874   2.78076
 Alpha virt. eigenvalues --    2.80802   2.82624   2.83284   2.84066   2.84995
 Alpha virt. eigenvalues --    2.88875   2.94300   3.01763   3.06019   3.08714
 Alpha virt. eigenvalues --    3.08733   3.09420   3.13735   3.14004   3.23786
 Alpha virt. eigenvalues --    3.24016   3.29329   3.30045   3.30689   3.31274
 Alpha virt. eigenvalues --    3.39628   3.41648   3.43936   3.44856   3.48555
 Alpha virt. eigenvalues --    3.54137   3.54674   3.60653   3.65853   3.83964
 Alpha virt. eigenvalues --    4.02273   4.03903   4.08413   4.17359   4.18321
 Alpha virt. eigenvalues --    4.28276   4.38499   4.67529   5.10758   5.11627
 Alpha virt. eigenvalues --    5.53309   5.53755   5.88010   5.91346   8.10343
 Alpha virt. eigenvalues --    8.11878  17.42869  17.43875  17.61517  17.63936
 Alpha virt. eigenvalues --   17.67749  17.72342  23.62599  23.82979  23.94530
 Alpha virt. eigenvalues --   23.97794  24.16551  24.16839  24.28563  24.29089
 Alpha virt. eigenvalues --   50.08122  50.09525 189.34769 189.36982
          Condensed to atoms (all electrons):
               1          2          3          4          5          6
     1  C    9.768032  -4.469735   1.044325  -0.761865   0.711179   0.051955
     2  C   -4.469735  17.509642  -6.189404   1.716407  -1.988484  -0.164542
     3  C    1.044325  -6.189404  12.216170  -0.834926   0.269853   0.453528
     4  C   -0.761865   1.716407  -0.834926   6.054469  -0.085582  -0.001979
     5  S    0.711179  -1.988484   0.269853  -0.085582  17.124238   0.012537
     6  H    0.051955  -0.164542   0.453528  -0.001979   0.012537   0.502329
     7  H    0.040553  -0.069107   0.069128   0.351055  -0.026950  -0.003604
     8  C    0.219929  -1.290612   0.017418  -0.180622   0.632827   0.006295
     9  C   -1.290612   1.377111  -0.419519  -0.061429  -0.520602   0.001823
    10  S    0.632827  -0.520602   0.005419   0.047967   0.149354  -0.000238
    11  C    0.017418  -0.419519  -0.049078  -0.017304   0.005419   0.000002
    12  C   -0.180622  -0.061429  -0.017304  -0.017604   0.047967   0.000110
    13  H    0.006295   0.001823   0.000002   0.000110  -0.000238   0.000000
    14  H    0.000375   0.003202   0.000346  -0.000019  -0.000607  -0.000000
    15  O   -0.081117   0.095335   0.044872   0.005899   0.032694   0.000118
    16  O   -0.030397   0.002897  -0.002521   0.005777  -0.070294   0.000033
    17  H    0.027066   0.203327  -0.259074   0.004530  -0.005281  -0.000083
    18  H    0.029503   0.001843   0.000903  -0.000166   0.010011   0.000000
               7          8          9         10         11         12
     1  C    0.040553   0.219929  -1.290612   0.632827   0.017418  -0.180622
     2  C   -0.069107  -1.290612   1.377111  -0.520602  -0.419519  -0.061429
     3  C    0.069128   0.017418  -0.419519   0.005419  -0.049078  -0.017304
     4  C    0.351055  -0.180622  -0.061429   0.047967  -0.017304  -0.017604
     5  S   -0.026950   0.632827  -0.520602   0.149354   0.005419   0.047967
     6  H   -0.003604   0.006295   0.001823  -0.000238   0.000002   0.000110
     7  H    0.450180   0.000375   0.003202  -0.000607   0.000346  -0.000019
     8  C    0.000375   9.768032  -4.469734   0.711178   1.044325  -0.761865
     9  C    0.003202  -4.469734  17.509641  -1.988484  -6.189404   1.716407
    10  S   -0.000607   0.711178  -1.988484  17.124238   0.269854  -0.085582
    11  C    0.000346   1.044325  -6.189404   0.269854  12.216169  -0.834926
    12  C   -0.000019  -0.761865   1.716407  -0.085582  -0.834926   6.054469
    13  H   -0.000000   0.051955  -0.164542   0.012537   0.453528  -0.001979
    14  H    0.000000   0.040553  -0.069107  -0.026950   0.069128   0.351055
    15  O   -0.000214  -0.030397   0.002897  -0.070294  -0.002521   0.005777
    16  O   -0.000043  -0.081117   0.095335   0.032694   0.044872   0.005899
    17  H    0.000012   0.029503   0.001843   0.010011   0.000903  -0.000166
    18  H   -0.000006   0.027066   0.203327  -0.005281  -0.259074   0.004529
              13         14         15         16         17         18
     1  C    0.006295   0.000375  -0.081117  -0.030397   0.027066   0.029503
     2  C    0.001823   0.003202   0.095335   0.002897   0.203327   0.001843
     3  C    0.000002   0.000346   0.044872  -0.002521  -0.259074   0.000903
     4  C    0.000110  -0.000019   0.005899   0.005777   0.004530  -0.000166
     5  S   -0.000238  -0.000607   0.032694  -0.070294  -0.005281   0.010011
     6  H    0.000000  -0.000000   0.000118   0.000033  -0.000083   0.000000
     7  H   -0.000000   0.000000  -0.000214  -0.000043   0.000012  -0.000006
     8  C    0.051955   0.040553  -0.030397  -0.081117   0.029503   0.027066
     9  C   -0.164542  -0.069107   0.002897   0.095335   0.001843   0.203327
    10  S    0.012537  -0.026950  -0.070294   0.032694   0.010011  -0.005281
    11  C    0.453528   0.069128  -0.002521   0.044872   0.000903  -0.259074
    12  C   -0.001979   0.351055   0.005777   0.005899  -0.000166   0.004529
    13  H    0.502329  -0.003604   0.000033   0.000118   0.000000  -0.000083
    14  H   -0.003604   0.450180  -0.000043  -0.000214  -0.000006   0.000012
    15  O    0.000033  -0.000043   8.048473  -0.001404   0.227635  -0.000052
    16  O    0.000118  -0.000214  -0.001404   8.048473  -0.000052   0.227635
    17  H    0.000000  -0.000006   0.227635  -0.000052   0.463396  -0.000000
    18  H   -0.000083   0.000012  -0.000052   0.227635  -0.000000   0.463396
 Mulliken charges:
               1
     1  C    0.264892
     2  C    0.261846
     3  C   -0.350139
     4  C   -0.224718
     5  S   -0.298041
     6  H    0.141716
     7  H    0.185697
     8  C    0.264892
     9  C    0.261846
    10  S   -0.298041
    11  C   -0.350139
    12  C   -0.224718
    13  H    0.141716
    14  H    0.185697
    15  O   -0.277690
    16  O   -0.277690
    17  H    0.296437
    18  H    0.296437
 Sum of Mulliken charges =  -0.00000
 Mulliken charges with hydrogens summed into heavy atoms:
               1
     1  C    0.264892
     2  C    0.261846
     3  C   -0.208423
     4  C   -0.039021
     5  S   -0.298041
     8  C    0.264892
     9  C    0.261846
    10  S   -0.298041
    11  C   -0.208423
    12  C   -0.039021
    15  O    0.018747
    16  O    0.018747
 Electronic spatial extent (au):  <R**2>=           2470.9584
 Charge=             -0.0000 electrons
 Dipole moment (field-independent basis, Debye):
    X=             -0.0000    Y=              0.0000    Z=              0.0012  Tot=              0.0012
 Quadrupole moment (field-independent basis, Debye-Ang):
   XX=            -64.6045   YY=            -68.8774   ZZ=            -89.3635
   XY=            -10.3715   XZ=              0.0000   YZ=             -0.0001
 Traceless Quadrupole moment (field-independent basis, Debye-Ang):
   XX=              9.6773   YY=              5.4044   ZZ=            -15.0817
   XY=            -10.3715   XZ=              0.0000   YZ=             -0.0001
 Octapole moment (field-independent basis, Debye-Ang**2):
  XXX=             -0.0000  YYY=              0.0000  ZZZ=              0.0005  XYY=             -0.0000
  XXY=              0.0000  XXZ=              0.0048  XZZ=              0.0000  YZZ=             -0.0000
  YYZ=              0.0161  XYZ=             -0.0109
 Hexadecapole moment (field-independent basis, Debye-Ang**3):
 XXXX=          -1926.8781 YYYY=           -785.9450 ZZZZ=           -106.9470 XXXY=            -25.8227
 XXXZ=              0.0003 YYYX=           -157.4570 YYYZ=             -0.0021 ZZZX=              0.0006
 ZZZY=             -0.0012 XXYY=           -406.9664 XXZZ=           -437.8294 YYZZ=           -197.5389
 XXYZ=             -0.0003 YYXZ=              0.0006 ZZXY=             -6.5689
 N-N= 8.708378873622D+02 E-N=-4.707930918368D+03  KE= 1.252323439999D+03
 Calling FoFJK, ICntrl=      2127 FMM=F ISym2X=0 I1Cent= 0 IOpClX= 0 NMat=1 NMatS=1 NMatT=0.
 ***** Axes restored to original set *****
 -------------------------------------------------------------------
 Center     Atomic                   Forces (Hartrees/Bohr)
 Number     Number              X              Y              Z
 -------------------------------------------------------------------
      1        6          -0.013158207   -0.005059964   -0.000004953
      2        6           0.002552751    0.000112460    0.000006651
      3        6           0.005147734   -0.003796719   -0.000000752
      4        6           0.003769730    0.006974474   -0.000003881
      5       16          -0.005750961    0.005996295    0.000006033
      6        1          -0.001333780    0.001523302    0.000000464
      7        1          -0.000284421   -0.000032007    0.000000290
      8        6           0.013158207    0.005059964   -0.000004778
      9        6          -0.002552750   -0.000112460    0.000006383
     10       16           0.005750961   -0.005996295    0.000006077
     11        6          -0.005147734    0.003796720   -0.000000717
     12        6          -0.003769730   -0.006974474   -0.000003909
     13        1           0.001333779   -0.001523302    0.000000446
     14        1           0.000284421    0.000032007    0.000000278
     15        8           0.006159442    0.005761810   -0.000004279
     16        8          -0.006159439   -0.005761812   -0.000003957
     17        1           0.001345352   -0.012894790    0.000000369
     18        1          -0.001345357    0.012894793    0.000000236
 -------------------------------------------------------------------
 Cartesian Forces:  Max     0.013158207 RMS     0.004797656

 GradGradGradGradGradGradGradGradGradGradGradGradGradGradGradGradGradGrad
 Berny optimization.
 FormGI is forming the generalized inverse of G from B-inverse, IUseBI=4.
 Internal  Forces:  Max     0.021824708 RMS     0.004515785
 Search for a local minimum.
 Step number   1 out of a maximum of   97 on scan point     1 out of    26
 All quantities printed in internal units (Hartrees-Bohrs-Radians)
 Mixed Optimization -- RFO/linear search
 Second derivative matrix not updated -- first step.
 ITU=  0
     Eigenvalues ---    0.01511   0.01609   0.01609   0.01688   0.01688
     Eigenvalues ---    0.01987   0.01987   0.02100   0.02100   0.02113
     Eigenvalues ---    0.02113   0.02173   0.02173   0.02275   0.02275
     Eigenvalues ---    0.16000   0.16000   0.16000   0.16000   0.16000
     Eigenvalues ---    0.16000   0.22532   0.22584   0.24749   0.24777
     Eigenvalues ---    0.25000   0.25000   0.25000   0.29140   0.29143
     Eigenvalues ---    0.32099   0.32171   0.35945   0.35945   0.36108
     Eigenvalues ---    0.36108   0.39085   0.40679   0.40753   0.45483
     Eigenvalues ---    0.45570   0.50101   0.50101   0.52226   0.52226
     Eigenvalues ---    0.55473   0.554731000.000001000.000001000.00000
     Eigenvalues --- 1000.000001000.000001000.000001000.000001000.00000
     Eigenvalues --- 1000.000001000.000001000.000001000.000001000.00000
     Eigenvalues --- 1000.000001000.000001000.000001000.000001000.00000
     Eigenvalues --- 1000.000001000.000001000.000001000.000001000.00000
     Eigenvalues --- 1000.000001000.000001000.000001000.000001000.00000
     Eigenvalues --- 1000.000001000.000001000.000001000.000001000.00000
     Eigenvalues --- 1000.000001000.000001000.000001000.000001000.00000
     Eigenvalues --- 1000.000001000.00000
 RFO step:  Lambda=-7.56229497D-03 EMin= 1.51092729D-02
 Linear search not attempted -- first point.
 Iteration  1 RMS(Cart)=  0.04012956 RMS(Int)=  0.00234619
 Iteration  2 RMS(Cart)=  0.00237158 RMS(Int)=  0.00000295
 Iteration  3 RMS(Cart)=  0.00000176 RMS(Int)=  0.00000275
 Iteration  4 RMS(Cart)=  0.00000000 RMS(Int)=  0.00000275
 Iteration  1 RMS(Cart)=  0.00000098 RMS(Int)=  0.00000030
 Variable       Old X    -DE/DX   Delta X   Delta X   Delta X     New X
                                 (Linear)    (Quad)   (Total)
    R1        2.62118  -0.01176   0.00000  -0.02526  -0.02526   2.59593
    R2        3.32335  -0.00632   0.00000  -0.02041  -0.02041   3.30294
    R3        2.72816   0.00208   0.00000   0.00522   0.00522   2.73339
    R4        2.69003  -0.00419   0.00000  -0.01094  -0.01094   2.67909
    R5        2.57684  -0.00854   0.00000  -0.01613  -0.01613   2.56071
    R6        2.58219  -0.00698   0.00000  -0.01306  -0.01306   2.56913
    R7        2.04168   0.00151   0.00000   0.00412   0.00412   2.04581
    R8        3.26175  -0.00588   0.00000  -0.01571  -0.01572   3.24603
    R9        2.03912   0.00015   0.00000   0.00041   0.00041   2.03954
   R10        2.62118  -0.01176   0.00000  -0.02468  -0.02467   2.59651
   R11        3.32335  -0.00632   0.00000  -0.02054  -0.02054   3.30281
   R12        2.69003  -0.00419   0.00000  -0.01037  -0.01037   2.67966
   R13        2.57684  -0.00854   0.00000  -0.01613  -0.01613   2.56071
   R14        3.26175  -0.00588   0.00000  -0.01665  -0.01666   3.24509
   R15        2.58219  -0.00698   0.00000  -0.01324  -0.01324   2.56895
   R16        2.04168   0.00151   0.00000   0.00412   0.00412   2.04581
   R17        2.03912   0.00015   0.00000   0.00041   0.00041   2.03954
   R18        1.81414  -0.00483   0.00000  -0.00859  -0.00859   1.80555
   R19        1.81414  -0.00483   0.00000  -0.00859  -0.00859   1.80555
    A1        1.90639   0.00042   0.00000  -0.00128  -0.00127   1.90511
    A2        2.23296  -0.00040   0.00000  -0.00009  -0.00009   2.23287
    A3        2.14384  -0.00002   0.00000   0.00137   0.00137   2.14520
    A4        1.99480   0.00126   0.00000   0.00655   0.00656   2.00136
    A5        2.08497   0.00275   0.00000   0.00000  -0.00000   2.08497
    A6        2.20341  -0.00401   0.00000  -0.00655  -0.00655   2.19686
    A7        1.95572  -0.00066   0.00000  -0.00577  -0.00577   1.94996
    A8        2.17384  -0.00104   0.00000  -0.00532  -0.00532   2.16852
    A9        2.15362   0.00171   0.00000   0.01109   0.01109   2.16470
   A10        1.96177  -0.00039   0.00000  -0.00022  -0.00022   1.96154
   A11        2.23094  -0.00005   0.00000  -0.00137  -0.00137   2.22957
   A12        2.09048   0.00044   0.00000   0.00159   0.00159   2.09207
   A13        1.60610  -0.00063   0.00000   0.00072   0.00071   1.60681
   A14        2.23296  -0.00040   0.00000  -0.00121  -0.00122   2.23175
   A15        2.14384  -0.00002   0.00000   0.00025   0.00024   2.14408
   A16        1.90639   0.00042   0.00000   0.00097   0.00097   1.90736
   A17        1.99480   0.00126   0.00000   0.00320   0.00320   1.99800
   A18        2.08497   0.00275   0.00000   0.01152   0.01151   2.09648
   A19        2.20341  -0.00401   0.00000  -0.01471  -0.01471   2.18870
   A20        1.60610  -0.00063   0.00000   0.00002   0.00002   1.60612
   A21        1.95572  -0.00066   0.00000  -0.00372  -0.00372   1.95200
   A22        2.17384  -0.00104   0.00000  -0.00635  -0.00634   2.16750
   A23        2.15362   0.00171   0.00000   0.01006   0.01007   2.16368
   A24        1.96177  -0.00039   0.00000  -0.00046  -0.00047   1.96130
   A25        2.09048   0.00044   0.00000   0.00171   0.00171   2.09219
   A26        2.23094  -0.00005   0.00000  -0.00125  -0.00124   2.22970
   A27        2.05933  -0.02182   0.00000  -0.13025  -0.13025   1.92908
   A28        2.05933  -0.02182   0.00000  -0.13025  -0.13025   1.92908
    D1        0.00007  -0.00000   0.00000  -0.00008  -0.00008  -0.00001
    D2       -3.14152  -0.00000   0.00000  -0.00004  -0.00004  -3.14156
    D3       -3.14157  -0.00000   0.00000  -0.00003  -0.00003   3.14159
    D4        0.00003   0.00000   0.00000   0.00001   0.00001   0.00003
    D5       -0.00007   0.00000   0.00000   0.00009   0.00009   0.00002
    D6        3.14156   0.00000   0.00000   0.00004   0.00004  -3.14158
    D7        3.14148  -0.00000   0.00000  -0.00002  -0.00002   3.14146
    D8       -0.00016   0.00000   0.00000   0.00004   0.00004  -0.00012
    D9       -0.00016   0.00000   0.00000   0.00004   0.00004  -0.00012
   D10        3.14138   0.00000   0.00000   0.00010   0.00010   3.14148
   D11       -0.00003   0.00000   0.00000   0.00002   0.00002  -0.00001
   D12        3.14157   0.00000   0.00000   0.00003   0.00003  -3.14159
   D13        3.14156  -0.00000   0.00000  -0.00002  -0.00002   3.14154
   D14       -0.00002  -0.00000   0.00000  -0.00001  -0.00001  -0.00003
   D15       -3.14122  -0.00000   0.00000  -0.00002  -0.00002  -3.14123
   D16        0.00037   0.00000   0.00000   0.00003   0.00002   0.00040
   D17       -0.00003   0.00000   0.00000   0.00005   0.00005   0.00003
   D18       -3.14157  -0.00000   0.00000  -0.00001  -0.00001  -3.14158
   D19        3.14155   0.00000   0.00000   0.00005   0.00005  -3.14158
   D20        0.00001  -0.00000   0.00000  -0.00002  -0.00002  -0.00001
   D21        0.00006  -0.00000   0.00000  -0.00009  -0.00009  -0.00003
   D22       -3.14158  -0.00000   0.00000  -0.00003  -0.00003   3.14158
   D23       -3.14156  -0.00000   0.00000  -0.00003  -0.00003   3.14159
   D24        0.00002   0.00000   0.00000   0.00001   0.00001   0.00003
   D25        0.00007  -0.00000   0.00000  -0.00008  -0.00008  -0.00001
   D26       -3.14152  -0.00000   0.00000  -0.00004  -0.00004  -3.14157
   D27        3.14156   0.00000   0.00000   0.00005   0.00005  -3.14158
   D28       -0.00007   0.00000   0.00000   0.00009   0.00009   0.00002
   D29       -0.00003   0.00000   0.00000   0.00002   0.00002  -0.00001
   D30        3.14157   0.00000   0.00000   0.00003   0.00003  -3.14159
   D31        3.14157  -0.00000   0.00000  -0.00002  -0.00002   3.14154
   D32       -0.00002  -0.00000   0.00000  -0.00001  -0.00001  -0.00003
   D33       -3.14125  -0.00000   0.00000  -0.00002  -0.00002  -3.14126
   D34        0.00034   0.00000   0.00000   0.00003   0.00002   0.00037
   D35        0.00006  -0.00000   0.00000  -0.00009  -0.00009  -0.00003
   D36       -3.14158  -0.00000   0.00000  -0.00003  -0.00003   3.14158
   D37       -0.00003   0.00000   0.00000   0.00005   0.00005   0.00003
   D38       -3.14157  -0.00000   0.00000  -0.00001  -0.00001  -3.14158
   D39        3.14156   0.00000   0.00000   0.00005   0.00005  -3.14158
   D40        0.00001  -0.00000   0.00000  -0.00002  -0.00002  -0.00001
         Item               Value     Threshold  Converged?
 Maximum Force            0.021825     0.000450     NO 
 RMS     Force            0.004525     0.000300     NO 
 Maximum Displacement     0.248378     0.001800     NO 
 RMS     Displacement     0.040445     0.001200     NO 
 Predicted change in Energy=-3.927303D-03
 GradGradGradGradGradGradGradGradGradGradGradGradGradGradGradGradGradGrad

                          Input orientation:                          
 ---------------------------------------------------------------------
 Center     Atomic      Atomic             Coordinates (Angstroms)
 Number     Number       Type             X           Y           Z
 ---------------------------------------------------------------------
      1          6           0       -0.597645   -0.409476   -0.000076
      2          6           0       -1.906596    0.007316   -0.000010
      3          6           0       -2.861314   -1.040742   -0.000034
      4          6           0       -2.266533   -2.263259   -0.000134
      5         16           0       -0.552116   -2.156723   -0.000157
      6          1           0       -3.933149   -0.888493    0.000004
      7          1           0       -2.744913   -3.230725   -0.000182
      8          6           0        0.595783    0.407796   -0.000075
      9          6           0        1.904559   -0.010559   -0.000002
     10         16           0        0.548293    2.154922   -0.000161
     11          6           0        2.857139    1.039852   -0.000026
     12          6           0        2.262169    2.262171   -0.000133
     13          1           0        3.929157    0.888900    0.000017
     14          1           0        2.740248    3.229787   -0.000183
     15          8           0       -2.183646    1.333761    0.000026
     16          8           0        2.195378   -1.334055    0.000043
     17          1           0       -3.128029    1.478788    0.000392
     18          1           0        3.141216   -1.469260    0.000386
 ---------------------------------------------------------------------
                    Distance matrix (angstroms):
                    1          2          3          4          5
     1  C    0.000000
     2  C    1.373706   0.000000
     3  C    2.350041   1.417714   0.000000
     4  C    2.494333   2.298926   1.359526   0.000000
     5  S    1.747840   2.552975   2.564724   1.717724   0.000000
     6  H    3.369724   2.215714   1.082594   2.160460   3.611065
     7  H    3.545449   3.344800   2.193074   1.079277   2.441688
     8  C    1.446445   2.534223   3.748304   3.915020   2.809702
     9  C    2.533804   3.811197   4.875943   4.740534   3.262096
    10  S    2.808791   3.261701   4.673082   5.238660   4.449851
    11  C    3.746476   4.874352   6.085193   6.096110   4.673447
    12  C    3.913597   4.739513   6.095845   6.402239   5.238972
    13  H    4.709322   5.901966   7.059321   6.951451   5.418268
    14  H    4.938195   5.654864   7.043786   7.432456   6.313014
    15  O    2.356751   1.355070   2.469312   3.597975   3.852969
    16  O    2.942078   4.315723   5.065192   4.557638   2.868014
    17  H    3.157274   1.912362   2.533609   3.839934   4.455588
    18  H    3.886159   5.259343   6.017807   5.465729   3.756768
                    6          7          8          9         10
     6  H    0.000000
     7  H    2.626396   0.000000
     8  C    4.710795   4.939543   0.000000
     9  C    5.903355   5.655710   1.374015   0.000000
    10  S    5.417167   6.312717   1.747771   2.555145   0.000000
    11  C    7.058790   7.044204   2.348026   1.418017   2.564010
    12  C    6.950443   7.432549   2.493101   2.300693   1.717228
    13  H    8.060705   7.843119   3.367914   2.215406   3.610131
    14  H    7.841840   8.474975   3.544343   3.346374   2.441312
    15  O    2.828282   4.598865   2.929614   4.303559   2.852682
    16  O    6.144702   5.291865   2.364899   1.355070   3.858217
    17  H    2.500448   4.725071   3.874764   5.248342   3.737981
    18  H    7.098164   6.144044   3.162684   1.912362   4.456225
                   11         12         13         14         15
    11  C    0.000000
    12  C    1.359431   0.000000
    13  H    1.082594   2.159796   0.000000
    14  H    2.193052   1.079277   2.625500   0.000000
    15  O    5.049346   4.541720   6.128969   5.276329   0.000000
    16  O    2.464419   3.596846   2.819134   4.596252   5.127679
    17  H    6.001241   5.446827   7.081796   6.123942   0.955454
    18  H    2.525142   3.833576   2.486317   4.716123   6.017565
                   16         17         18
    16  O    0.000000
    17  H    6.020859   0.000000
    18  H    0.955454   6.927801   0.000000
 Stoichiometry    C8H6O2S2
 Framework group  C1[X(C8H6O2S2)]
 Deg. of freedom    48
 Full point group                 C1      NOp   1
 Largest Abelian subgroup         C1      NOp   1
 Largest concise Abelian subgroup C1      NOp   1
                         Standard orientation:                         
 ---------------------------------------------------------------------
 Center     Atomic      Atomic             Coordinates (Angstroms)
 Number     Number       Type             X           Y           Z
 ---------------------------------------------------------------------
      1          6           0        0.723790   -0.005481   -0.000007
      2          6           0        1.560262   -1.095152    0.000059
      3          6           0        2.942514   -0.780049    0.000035
      4          6           0        3.152438    0.563172   -0.000065
      5         16           0        1.684256    1.454810   -0.000088
      6          1           0        3.735419   -1.517146    0.000073
      7          1           0        4.097647    1.084151   -0.000113
      8          6           0       -0.722616    0.005192   -0.000006
      9          6           0       -1.558051    1.096047    0.000067
     10         16           0       -1.681404   -1.456119   -0.000092
     11          6           0       -2.939892    0.777791    0.000043
     12          6           0       -3.149549   -0.565375   -0.000064
     13          1           0       -3.733689    1.513927    0.000086
     14          1           0       -4.094596   -1.086649   -0.000114
     15          8           0        1.030163   -2.342233    0.000095
     16          8           0       -1.040941    2.348569    0.000112
     17          1           0        1.722569   -3.000614    0.000461
     18          1           0       -1.740151    2.999719    0.000455
 ---------------------------------------------------------------------
 Rotational constants (GHZ):           1.3051963           0.6312890           0.4254905
 Standard basis: 6-311+G(d,p) (5D, 7F)
 There are   328 symmetry adapted cartesian basis functions of A   symmetry.
 There are   316 symmetry adapted basis functions of A   symmetry.
   316 basis functions,   508 primitive gaussians,   328 cartesian basis functions
    51 alpha electrons       51 beta electrons
       nuclear repulsion energy       875.2674563846 Hartrees.
 NAtoms=   18 NActive=   18 NUniq=   18 SFac= 1.00D+00 NAtFMM=   60 NAOKFM=F Big=F
 Integral buffers will be    131072 words long.
 Raffenetti 2 integral format.
 Two-electron integral symmetry is turned on.
 Nuclear repulsion after empirical dispersion term =      875.2589248599 Hartrees.
 One-electron integrals computed using PRISM.
 NBasis=   316 RedAO= T EigKep=  1.68D-06  NBF=   316
 NBsUse=   315 1.00D-06 EigRej=  6.57D-07 NBFU=   315
 Initial guess from the checkpoint file:  "temp.chk"
 B after Tr=    -0.000000   -0.000000    0.000000
         Rot=    0.999998   -0.000000   -0.000000   -0.002082 Ang=  -0.24 deg.
 ExpMin= 4.05D-02 ExpMax= 9.34D+04 ExpMxC= 3.17D+03 IAcc=2 IRadAn=         4 AccDes= 0.00D+00
 Harris functional with IExCor= 4639 and IRadAn=       4 diagonalized for initial guess.
 HarFok:  IExCor= 4639 AccDes= 0.00D+00 IRadAn=         4 IDoV= 1 UseB2=F ITyADJ=14
 ICtDFT=  3500011 ScaDFX=  1.000000  1.000000  1.000000  1.000000
 FoFCou: FMM=F IPFlag=           0 FMFlag=      100000 FMFlg1=           0
         NFxFlg=           0 DoJE=T BraDBF=F KetDBF=T FulRan=T
         wScrn=  0.000000 ICntrl=       500 IOpCl=  0 I1Cent=   200000004 NGrid=           0
         NMat0=    1 NMatS0=      1 NMatT0=    0 NMatD0=    1 NMtDS0=    0 NMtDT0=    0
 Petite list used in FoFCou.
 Requested convergence on RMS density matrix=1.00D-08 within 128 cycles.
 Requested convergence on MAX density matrix=1.00D-06.
 Requested convergence on             energy=1.00D-06.
 No special actions if energy rises.
 SCF Done:  E(RwB97XD) =  -1255.23426850     A.U. after   14 cycles
            NFock= 14  Conv=0.57D-08     -V/T= 2.0021
 Calling FoFJK, ICntrl=      2127 FMM=F ISym2X=0 I1Cent= 0 IOpClX= 0 NMat=1 NMatS=1 NMatT=0.
 ***** Axes restored to original set *****
 -------------------------------------------------------------------
 Center     Atomic                   Forces (Hartrees/Bohr)
 Number     Number              X              Y              Z
 -------------------------------------------------------------------
      1        6          -0.002220732   -0.006028274    0.000001790
      2        6           0.006165838    0.000471885   -0.000000981
      3        6          -0.001106714   -0.000375052   -0.000001526
      4        6           0.001928927   -0.000873067    0.000002638
      5       16          -0.001073091    0.000405914   -0.000002532
      6        1          -0.000216218    0.000409282   -0.000000418
      7        1          -0.000058743   -0.000020335    0.000000601
      8        6           0.001959931    0.004382224    0.000001930
      9        6          -0.004511768    0.000858349   -0.000000987
     10       16           0.001207298   -0.000515007   -0.000002514
     11        6           0.001176720    0.000761662   -0.000001536
     12        6          -0.001705937    0.000820089    0.000002610
     13        1           0.000286270   -0.000435312   -0.000000420
     14        1           0.000085386    0.000016229    0.000000610
     15        8          -0.003186704    0.004564477   -0.000000183
     16        8           0.001355243   -0.004683949   -0.000000156
     17        1          -0.002050585    0.000151415    0.000000579
     18        1           0.001964876    0.000089472    0.000000495
 -------------------------------------------------------------------
 Cartesian Forces:  Max     0.006165838 RMS     0.001931438

 GradGradGradGradGradGradGradGradGradGradGradGradGradGradGradGradGradGrad
 Berny optimization.
 Using GEDIIS/GDIIS optimizer.
 FormGI is forming the generalized inverse of G from B-inverse, IUseBI=4.
 Internal  Forces:  Max     0.006604288 RMS     0.001450138
 Search for a local minimum.
 Step number   2 out of a maximum of   97 on scan point     1 out of    26
 All quantities printed in internal units (Hartrees-Bohrs-Radians)
 Mixed Optimization -- RFO/linear search
 Update second derivatives using D2CorX and points    1    2
 DE= -3.89D-03 DEPred=-3.93D-03 R= 9.90D-01
 TightC=F SS=  1.41D+00  RLast= 1.97D-01 DXNew= 5.0454D-01 5.8973D-01
 Trust test= 9.90D-01 RLast= 1.97D-01 DXMaxT set to 5.05D-01
 ITU=  1  0
 Use linear search instead of GDIIS.
     Eigenvalues ---    0.01511   0.01608   0.01609   0.01687   0.01687
     Eigenvalues ---    0.01988   0.01989   0.02099   0.02100   0.02114
     Eigenvalues ---    0.02114   0.02173   0.02173   0.02276   0.02276
     Eigenvalues ---    0.15186   0.16000   0.16000   0.16000   0.16000
     Eigenvalues ---    0.16105   0.22555   0.22580   0.24684   0.24774
     Eigenvalues ---    0.24976   0.25000   0.25056   0.29000   0.29137
     Eigenvalues ---    0.31907   0.32125   0.35925   0.35945   0.36108
     Eigenvalues ---    0.36108   0.39002   0.40684   0.41090   0.45456
     Eigenvalues ---    0.45534   0.50058   0.50115   0.52225   0.54642
     Eigenvalues ---    0.55473   0.582851000.000001000.000001000.00000
     Eigenvalues --- 1000.000001000.000001000.000001000.000001000.00000
     Eigenvalues --- 1000.000001000.000001000.000001000.000001000.00000
     Eigenvalues --- 1000.000001000.000001000.000001000.000001000.00000
     Eigenvalues --- 1000.000001000.000001000.000001000.000001000.00000
     Eigenvalues --- 1000.000001000.000001000.000001000.000001000.00000
     Eigenvalues --- 1000.000001000.000001000.000001000.000001000.00000
     Eigenvalues --- 1000.000001000.000001000.000001000.000001000.00000
     Eigenvalues --- 1000.000001000.00000
 RFO step:  Lambda=-2.71841642D-04 EMin= 1.51092727D-02
 Quartic linear search produced a step of -0.00265.
 Iteration  1 RMS(Cart)=  0.00673138 RMS(Int)=  0.00004420
 Iteration  2 RMS(Cart)=  0.00004856 RMS(Int)=  0.00000059
 Iteration  3 RMS(Cart)=  0.00000000 RMS(Int)=  0.00000059
 Iteration  1 RMS(Cart)=  0.00000040 RMS(Int)=  0.00000012
 Variable       Old X    -DE/DX   Delta X   Delta X   Delta X     New X
                                 (Linear)    (Quad)   (Total)
    R1        2.59593   0.00147   0.00007   0.00096   0.00103   2.59695
    R2        3.30294  -0.00046   0.00005  -0.00212  -0.00207   3.30087
    R3        2.73339   0.00223  -0.00001   0.00588   0.00587   2.73925
    R4        2.67909   0.00144   0.00003   0.00190   0.00193   2.68102
    R5        2.56071   0.00569   0.00004   0.01025   0.01029   2.57100
    R6        2.56913   0.00096   0.00003   0.00173   0.00176   2.57090
    R7        2.04581   0.00027  -0.00001   0.00091   0.00090   2.04670
    R8        3.24603  -0.00166   0.00004  -0.00378  -0.00374   3.24229
    R9        2.03954   0.00004  -0.00000   0.00014   0.00014   2.03967
   R10        2.59651   0.00075   0.00007   0.00071   0.00078   2.59729
   R11        3.30281  -0.00043   0.00005  -0.00238  -0.00232   3.30049
   R12        2.67966   0.00155   0.00003   0.00348   0.00350   2.68317
   R13        2.56071   0.00520   0.00004   0.00932   0.00936   2.57007
   R14        3.24509  -0.00127   0.00004  -0.00467  -0.00463   3.24046
   R15        2.56895   0.00082   0.00004   0.00112   0.00115   2.57011
   R16        2.04581   0.00034  -0.00001   0.00111   0.00110   2.04691
   R17        2.03954   0.00005  -0.00000   0.00016   0.00016   2.03970
   R18        1.80555   0.00205   0.00002   0.00336   0.00338   1.80893
   R19        1.80555   0.00193   0.00002   0.00315   0.00317   1.80872
    A1        1.90511   0.00123   0.00000  -0.00006  -0.00005   1.90506
    A2        2.23287  -0.00030   0.00000   0.00124   0.00124   2.23411
    A3        2.14520  -0.00092  -0.00000  -0.00118  -0.00118   2.14402
    A4        2.00136  -0.00226  -0.00002  -0.00062  -0.00063   2.00072
    A5        2.08497   0.00660   0.00000   0.00000   0.00000   2.08497
    A6        2.19686  -0.00434   0.00002   0.00062   0.00063   2.19749
    A7        1.94996   0.00077   0.00002  -0.00112  -0.00110   1.94886
    A8        2.16852  -0.00077   0.00001  -0.00215  -0.00213   2.16639
    A9        2.16470  -0.00000  -0.00003   0.00327   0.00324   2.16794
   A10        1.96154   0.00008   0.00000   0.00044   0.00044   1.96199
   A11        2.22957  -0.00009   0.00000  -0.00057  -0.00056   2.22901
   A12        2.09207   0.00000  -0.00000   0.00012   0.00012   2.09219
   A13        1.60681   0.00018  -0.00000   0.00135   0.00135   1.60815
   A14        2.23175  -0.00070   0.00000  -0.00283  -0.00282   2.22892
   A15        2.14408   0.00001  -0.00000   0.00006   0.00006   2.14414
   A16        1.90736   0.00068  -0.00000   0.00277   0.00277   1.91013
   A17        1.99800  -0.00136  -0.00001  -0.00486  -0.00487   1.99313
   A18        2.09648   0.00390  -0.00003   0.01575   0.01572   2.11220
   A19        2.18870  -0.00254   0.00004  -0.01089  -0.01085   2.17785
   A20        1.60612   0.00040  -0.00000   0.00078   0.00078   1.60689
   A21        1.95200   0.00032   0.00001   0.00170   0.00171   1.95371
   A22        2.16750  -0.00056   0.00002  -0.00366  -0.00364   2.16386
   A23        2.16368   0.00024  -0.00003   0.00196   0.00194   2.16562
   A24        1.96130  -0.00004   0.00000  -0.00038  -0.00038   1.96092
   A25        2.09219   0.00009  -0.00000   0.00069   0.00069   2.09288
   A26        2.22970  -0.00005   0.00000  -0.00032  -0.00031   2.22938
   A27        1.92908  -0.00029   0.00035  -0.00676  -0.00641   1.92267
   A28        1.92908  -0.00066   0.00035  -0.00906  -0.00872   1.92036
    D1       -0.00001   0.00000   0.00000   0.00004   0.00004   0.00004
    D2       -3.14156   0.00000   0.00000   0.00003   0.00003  -3.14153
    D3        3.14159   0.00000   0.00000   0.00003   0.00003  -3.14157
    D4        0.00003   0.00000  -0.00000   0.00001   0.00001   0.00005
    D5        0.00002  -0.00000  -0.00000  -0.00008  -0.00008  -0.00006
    D6       -3.14158  -0.00000  -0.00000  -0.00006  -0.00006   3.14155
    D7        3.14146   0.00000   0.00000   0.00006   0.00006   3.14152
    D8       -0.00012   0.00000  -0.00000   0.00003   0.00003  -0.00009
    D9       -0.00012   0.00000  -0.00000   0.00004   0.00004  -0.00009
   D10        3.14148   0.00000  -0.00000   0.00001   0.00001   3.14149
   D11       -0.00001   0.00000  -0.00000   0.00002   0.00002   0.00001
   D12       -3.14159  -0.00000  -0.00000  -0.00001  -0.00001   3.14159
   D13        3.14154   0.00000   0.00000   0.00004   0.00004   3.14158
   D14       -0.00003   0.00000   0.00000   0.00000   0.00000  -0.00003
   D15       -3.14123  -0.00000   0.00000  -0.00000  -0.00000  -3.14123
   D16        0.00040  -0.00000  -0.00000  -0.00002  -0.00002   0.00038
   D17        0.00003  -0.00000  -0.00000  -0.00008  -0.00008  -0.00006
   D18       -3.14158  -0.00000   0.00000  -0.00003  -0.00003   3.14158
   D19       -3.14158  -0.00000  -0.00000  -0.00005  -0.00005   3.14155
   D20       -0.00001   0.00000   0.00000   0.00001   0.00001   0.00000
   D21       -0.00003   0.00000   0.00000   0.00009   0.00009   0.00007
   D22        3.14158   0.00000   0.00000   0.00004   0.00004  -3.14156
   D23        3.14159   0.00000   0.00000   0.00002   0.00003  -3.14157
   D24        0.00003   0.00000  -0.00000   0.00001   0.00001   0.00004
   D25       -0.00001   0.00000   0.00000   0.00005   0.00005   0.00004
   D26       -3.14157   0.00000   0.00000   0.00003   0.00003  -3.14154
   D27       -3.14158  -0.00000  -0.00000  -0.00006  -0.00006   3.14155
   D28        0.00002  -0.00000  -0.00000  -0.00008  -0.00008  -0.00006
   D29       -0.00001   0.00000  -0.00000   0.00002   0.00002   0.00001
   D30       -3.14159  -0.00000  -0.00000  -0.00001  -0.00001   3.14158
   D31        3.14154   0.00000   0.00000   0.00004   0.00004   3.14159
   D32       -0.00003   0.00000   0.00000   0.00000   0.00000  -0.00003
   D33       -3.14126  -0.00000   0.00000   0.00000   0.00000  -3.14126
   D34        0.00037  -0.00000  -0.00000  -0.00002  -0.00002   0.00035
   D35       -0.00003   0.00000   0.00000   0.00009   0.00009   0.00007
   D36        3.14158   0.00000   0.00000   0.00004   0.00004  -3.14156
   D37        0.00003  -0.00000  -0.00000  -0.00008  -0.00008  -0.00006
   D38       -3.14158  -0.00000   0.00000  -0.00003  -0.00003   3.14158
   D39       -3.14158  -0.00000  -0.00000  -0.00005  -0.00005   3.14156
   D40       -0.00001   0.00000   0.00000   0.00001   0.00001   0.00000
         Item               Value     Threshold  Converged?
 Maximum Force            0.005689     0.000450     NO 
 RMS     Force            0.001124     0.000300     NO 
 Maximum Displacement     0.036631     0.001800     NO 
 RMS     Displacement     0.006737     0.001200     NO 
 Predicted change in Energy=-1.359772D-04
 GradGradGradGradGradGradGradGradGradGradGradGradGradGradGradGradGradGrad

                          Input orientation:                          
 ---------------------------------------------------------------------
 Center     Atomic      Atomic             Coordinates (Angstroms)
 Number     Number       Type             X           Y           Z
 ---------------------------------------------------------------------
      1          6           0       -0.601232   -0.408891   -0.000089
      2          6           0       -1.910686    0.008110   -0.000053
      3          6           0       -2.865462   -1.041274   -0.000035
      4          6           0       -2.268189   -2.263615   -0.000042
      5         16           0       -0.555884   -2.155047   -0.000160
      6          1           0       -3.937533   -0.887314   -0.000001
      7          1           0       -2.745496   -3.231692   -0.000017
      8          6           0        0.595799    0.408612   -0.000087
      9          6           0        1.903242   -0.015227   -0.000046
     10         16           0        0.550666    2.154571   -0.000163
     11          6           0        2.856253    1.037296   -0.000027
     12          6           0        2.262157    2.260719   -0.000040
     13          1           0        3.928411    0.883188    0.000013
     14          1           0        2.741478    3.227813   -0.000016
     15          8           0       -2.188804    1.339896   -0.000064
     16          8           0        2.210543   -1.340078   -0.000046
     17          1           0       -3.135863    1.479153    0.000287
     18          1           0        3.160601   -1.456221    0.000281
 ---------------------------------------------------------------------
                    Distance matrix (angstroms):
                    1          2          3          4          5
     1  C    0.000000
     2  C    1.374249   0.000000
     3  C    2.350882   1.418734   0.000000
     4  C    2.493742   2.299684   1.360460   0.000000
     5  S    1.746745   2.552399   2.564106   1.715744   0.000000
     6  H    3.370429   2.215828   1.083070   2.163542   3.611467
     7  H    3.544866   3.345628   2.193700   1.079349   2.439993
     8  C    1.449550   2.538281   3.752665   3.917043   2.810467
     9  C    2.535225   3.814000   4.877839   4.738786   3.259775
    10  S    2.810375   3.265815   4.677965   5.240831   4.449412
    11  C    3.747754   4.876775   6.087568   6.095566   4.672659
    12  C    3.914820   4.742032   6.098822   6.402627   5.238354
    13  H    4.710321   5.904304   7.061179   6.949836   5.416620
    14  H    4.939568   5.657660   7.047190   7.433206   6.312510
    15  O    2.361915   1.360515   2.475447   3.604385   3.857597
    16  O    2.961956   4.336143   5.084791   4.572960   2.883972
    17  H    3.160549   1.914426   2.534891   3.842027   4.456872
    18  H    3.904905   5.278467   6.040332   5.488501   3.781616
                    6          7          8          9         10
     6  H    0.000000
     7  H    2.630030   0.000000
     8  C    4.714925   4.941262   0.000000
     9  C    5.905522   5.653001   1.374426   0.000000
    10  S    5.421899   6.314785   1.746542   2.556851   0.000000
    11  C    7.061137   7.043001   2.346252   1.419871   2.562038
    12  C    6.953148   7.432575   2.491395   2.304072   1.714780
    13  H    8.062738   7.840489   3.366232   2.215503   3.609097
    14  H    7.844963   8.475381   3.542856   3.349619   2.439571
    15  O    2.831698   4.605357   2.936206   4.310592   2.858040
    16  O    6.164724   5.304764   2.380192   1.360023   3.868819
    17  H    2.498568   4.726991   3.882185   5.256021   3.747891
    18  H    7.120895   6.167193   3.171090   1.912437   4.455287
                   11         12         13         14         15
    11  C    0.000000
    12  C    1.360042   0.000000
    13  H    1.083176   2.161942   0.000000
    14  H    2.193522   1.079361   2.627942   0.000000
    15  O    5.054125   4.545214   6.134240   5.279386   0.000000
    16  O    2.463504   3.601167   2.809622   4.598643   5.151360
    17  H    6.008386   5.454307   7.089368   6.131961   0.957242
    18  H    2.512022   3.823983   2.462187   4.702748   6.036092
                   16         17         18
    16  O    0.000000
    17  H    6.044180   0.000000
    18  H    0.957131   6.947077   0.000000
 Stoichiometry    C8H6O2S2
 Framework group  C1[X(C8H6O2S2)]
 Deg. of freedom    48
 Full point group                 C1      NOp   1
 Largest Abelian subgroup         C1      NOp   1
 Largest concise Abelian subgroup C1      NOp   1
                         Standard orientation:                         
 ---------------------------------------------------------------------
 Center     Atomic      Atomic             Coordinates (Angstroms)
 Number     Number       Type             X           Y           Z
 ---------------------------------------------------------------------
      1          6           0        0.726095   -0.005723   -0.000010
      2          6           0        1.566238   -1.093252    0.000025
      3          6           0        2.948308   -0.772805    0.000044
      4          6           0        3.151915    0.572333    0.000037
      5         16           0        1.681556    1.456540   -0.000081
      6          1           0        3.742717   -1.508980    0.000077
      7          1           0        4.094966    1.097354    0.000061
      8          6           0       -0.723432    0.002320   -0.000009
      9          6           0       -1.558034    1.094331    0.000033
     10         16           0       -1.678957   -1.459658   -0.000084
     11          6           0       -2.940436    0.770299    0.000052
     12          6           0       -3.147271   -0.573923    0.000039
     13          1           0       -3.734832    1.506645    0.000091
     14          1           0       -4.091421   -1.096991    0.000062
     15          8           0        1.037854   -2.346972    0.000015
     16          8           0       -1.057599    2.358938    0.000032
     17          1           0        1.737781   -2.999977    0.000365
     18          1           0       -1.773134    2.994633    0.000360
 ---------------------------------------------------------------------
 Rotational constants (GHZ):           1.3002627           0.6305331           0.4246222
 Standard basis: 6-311+G(d,p) (5D, 7F)
 There are   328 symmetry adapted cartesian basis functions of A   symmetry.
 There are   316 symmetry adapted basis functions of A   symmetry.
   316 basis functions,   508 primitive gaussians,   328 cartesian basis functions
    51 alpha electrons       51 beta electrons
       nuclear repulsion energy       874.4587619756 Hartrees.
 NAtoms=   18 NActive=   18 NUniq=   18 SFac= 1.00D+00 NAtFMM=   60 NAOKFM=F Big=F
 Integral buffers will be    131072 words long.
 Raffenetti 2 integral format.
 Two-electron integral symmetry is turned on.
 Nuclear repulsion after empirical dispersion term =      874.4502362018 Hartrees.
 One-electron integrals computed using PRISM.
 NBasis=   316 RedAO= T EigKep=  1.69D-06  NBF=   316
 NBsUse=   315 1.00D-06 EigRej=  6.68D-07 NBFU=   315
 Initial guess from the checkpoint file:  "temp.chk"
 B after Tr=     0.000000    0.000000   -0.000000
         Rot=    0.999999    0.000000   -0.000000   -0.001280 Ang=   0.15 deg.
 ExpMin= 4.05D-02 ExpMax= 9.34D+04 ExpMxC= 3.17D+03 IAcc=2 IRadAn=         4 AccDes= 0.00D+00
 Harris functional with IExCor= 4639 and IRadAn=       4 diagonalized for initial guess.
 HarFok:  IExCor= 4639 AccDes= 0.00D+00 IRadAn=         4 IDoV= 1 UseB2=F ITyADJ=14
 ICtDFT=  3500011 ScaDFX=  1.000000  1.000000  1.000000  1.000000
 FoFCou: FMM=F IPFlag=           0 FMFlag=      100000 FMFlg1=           0
         NFxFlg=           0 DoJE=T BraDBF=F KetDBF=T FulRan=T
         wScrn=  0.000000 ICntrl=       500 IOpCl=  0 I1Cent=   200000004 NGrid=           0
         NMat0=    1 NMatS0=      1 NMatT0=    0 NMatD0=    1 NMtDS0=    0 NMtDT0=    0
 Petite list used in FoFCou.
 Requested convergence on RMS density matrix=1.00D-08 within 128 cycles.
 Requested convergence on MAX density matrix=1.00D-06.
 Requested convergence on             energy=1.00D-06.
 No special actions if energy rises.
 SCF Done:  E(RwB97XD) =  -1255.23442517     A.U. after   12 cycles
            NFock= 12  Conv=0.56D-08     -V/T= 2.0021
 Calling FoFJK, ICntrl=      2127 FMM=F ISym2X=0 I1Cent= 0 IOpClX= 0 NMat=1 NMatS=1 NMatT=0.
 ***** Axes restored to original set *****
 -------------------------------------------------------------------
 Center     Atomic                   Forces (Hartrees/Bohr)
 Number     Number              X              Y              Z
 -------------------------------------------------------------------
      1        6          -0.001690628   -0.004301198   -0.000002872
      2        6           0.005914112    0.003258803   -0.000000662
      3        6          -0.000482930    0.000210025    0.000003157
      4        6           0.000496401   -0.000199288   -0.000004348
      5       16           0.000027818    0.000283150    0.000004921
      6        1           0.000112504    0.000055198    0.000000311
      7        1          -0.000039044    0.000026074   -0.000000707
      8        6           0.000749799    0.000635013   -0.000002952
      9        6          -0.001507099    0.000452897   -0.000000325
     10       16           0.000026619   -0.000498743    0.000004893
     11        6           0.000620544    0.000422228    0.000003085
     12        6          -0.000102637    0.000067028   -0.000004289
     13        1          -0.000009539   -0.000097745    0.000000286
     14        1           0.000058047   -0.000036220   -0.000000692
     15        8          -0.004316221    0.000389823   -0.000000117
     16        8           0.000222897   -0.000901026   -0.000000252
     17        1          -0.000252348    0.000178332    0.000000303
     18        1           0.000171703    0.000055648    0.000000261
 -------------------------------------------------------------------
 Cartesian Forces:  Max     0.005914112 RMS     0.001302937

 GradGradGradGradGradGradGradGradGradGradGradGradGradGradGradGradGradGrad
 Berny optimization.
 Using GEDIIS/GDIIS optimizer.
 FormGI is forming the generalized inverse of G from B-inverse, IUseBI=4.
 Internal  Forces:  Max     0.006413728 RMS     0.000930860
 Search for a local minimum.
 Step number   3 out of a maximum of   97 on scan point     1 out of    26
 All quantities printed in internal units (Hartrees-Bohrs-Radians)
 Mixed Optimization -- En-DIIS/RFO-DIIS
 Update second derivatives using D2CorX and points    1    2    3
 DE= -1.57D-04 DEPred=-1.36D-04 R= 1.15D+00
 TightC=F SS=  1.41D+00  RLast= 2.97D-02 DXNew= 8.4853D-01 8.9173D-02
 Trust test= 1.15D+00 RLast= 2.97D-02 DXMaxT set to 5.05D-01
 ITU=  1  1  0
 Use linear search instead of GDIIS.
     Eigenvalues ---    0.01511   0.01606   0.01608   0.01687   0.01688
     Eigenvalues ---    0.01988   0.01991   0.02099   0.02101   0.02114
     Eigenvalues ---    0.02115   0.02173   0.02173   0.02277   0.02277
     Eigenvalues ---    0.14635   0.16000   0.16000   0.16000   0.16024
     Eigenvalues ---    0.16284   0.22327   0.22578   0.23315   0.24782
     Eigenvalues ---    0.24809   0.25000   0.25958   0.28847   0.29137
     Eigenvalues ---    0.32009   0.32370   0.35935   0.35979   0.36108
     Eigenvalues ---    0.36109   0.38807   0.40637   0.40937   0.45065
     Eigenvalues ---    0.45504   0.49244   0.50145   0.51846   0.53088
     Eigenvalues ---    0.55469   0.563941000.000001000.000001000.00000
     Eigenvalues --- 1000.000001000.000001000.000001000.000001000.00000
     Eigenvalues --- 1000.000001000.000001000.000001000.000001000.00000
     Eigenvalues --- 1000.000001000.000001000.000001000.000001000.00000
     Eigenvalues --- 1000.000001000.000001000.000001000.000001000.00000
     Eigenvalues --- 1000.000001000.000001000.000001000.000001000.00000
     Eigenvalues --- 1000.000001000.000001000.000001000.000001000.00000
     Eigenvalues --- 1000.000001000.000001000.000001000.000001000.00000
     Eigenvalues --- 1000.000001000.00000
 RFO step:  Lambda=-9.36626798D-06 EMin= 1.51092617D-02
 Quartic linear search produced a step of  0.18235.
 Iteration  1 RMS(Cart)=  0.00282043 RMS(Int)=  0.00000229
 Iteration  2 RMS(Cart)=  0.00000355 RMS(Int)=  0.00000010
 Iteration  3 RMS(Cart)=  0.00000000 RMS(Int)=  0.00000010
 Iteration  1 RMS(Cart)=  0.00000013 RMS(Int)=  0.00000004
 Variable       Old X    -DE/DX   Delta X   Delta X   Delta X     New X
                                 (Linear)    (Quad)   (Total)
    R1        2.59695   0.00053   0.00019  -0.00047  -0.00029   2.59667
    R2        3.30087  -0.00041  -0.00038  -0.00112  -0.00149   3.29938
    R3        2.73925   0.00025   0.00107  -0.00010   0.00097   2.74022
    R4        2.68102   0.00051   0.00035  -0.00038  -0.00002   2.68099
    R5        2.57100   0.00149   0.00188   0.00170   0.00357   2.57457
    R6        2.57090   0.00015   0.00032   0.00039   0.00071   2.57160
    R7        2.04670  -0.00010   0.00016  -0.00044  -0.00028   2.04643
    R8        3.24229  -0.00079  -0.00068  -0.00008  -0.00076   3.24152
    R9        2.03967  -0.00001   0.00002  -0.00004  -0.00001   2.03966
   R10        2.59729  -0.00054   0.00014  -0.00168  -0.00153   2.59576
   R11        3.30049  -0.00041  -0.00042  -0.00154  -0.00196   3.29852
   R12        2.68317   0.00053   0.00064   0.00093   0.00157   2.68473
   R13        2.57007   0.00091   0.00171   0.00053   0.00224   2.57231
   R14        3.24046   0.00007  -0.00084   0.00084  -0.00000   3.24046
   R15        2.57011  -0.00001   0.00021  -0.00023  -0.00002   2.57009
   R16        2.04691   0.00000   0.00020  -0.00012   0.00008   2.04699
   R17        2.03970  -0.00001   0.00003  -0.00004  -0.00001   2.03968
   R18        1.80893   0.00028   0.00062   0.00001   0.00063   1.80955
   R19        1.80872   0.00016   0.00058  -0.00019   0.00038   1.80910
    A1        1.90506   0.00131  -0.00001   0.00044   0.00043   1.90549
    A2        2.23411  -0.00023   0.00023   0.00160   0.00182   2.23593
    A3        2.14402  -0.00108  -0.00022  -0.00204  -0.00225   2.14177
[...]
     8  C    1.452327   2.529830   3.738647   3.910784   2.803962
     9  C    2.541488   3.810051   4.866302   4.737086   3.259304
    10  S    2.802895   3.234517   4.653642   5.225651   4.437594
    11  C    3.752411   4.864924   6.073808   6.093387   4.673235
    12  C    3.915027   4.719877   6.080111   6.395109   5.234441
    13  H    4.716163   5.894790   7.048999   6.950003   5.419650
    14  H    4.938491   5.631445   7.026538   7.424275   6.308123
    15  O    2.430610   1.359210   2.431164   3.591844   3.897358
    16  O    2.975927   4.348126   5.083822   4.581628   2.893744
    17  H    3.193976   1.903238   2.440664   3.763767   4.440388
    18  H    3.918115   5.288538   6.039955   5.499699   3.794334
                    6          7          8          9         10
     6  H    0.000000
     7  H    2.622875   0.000000
     8  C    4.702691   4.935869   0.000000
     9  C    5.895165   5.653403   1.372624   0.000000
    10  S    5.398045   6.300037   1.744656   2.555660   0.000000
    11  C    7.047946   7.043413   2.345256   1.421635   2.561295
    12  C    6.934507   7.426734   2.491123   2.305604   1.715609
    13  H    8.051024   7.844019   3.364961   2.216711   3.608668
    14  H    7.823729   8.468080   3.542476   3.351274   2.440825
    15  O    2.746483   4.579335   3.043359   4.415983   2.957246
    16  O    6.164748   5.316050   2.381749   1.361333   3.869447
    17  H    2.350720   4.624925   3.973869   5.344441   3.876973
    18  H    7.121404   6.182546   3.170971   1.912629   4.453902
                   11         12         13         14         15
    11  C    0.000000
    12  C    1.359794   0.000000
    13  H    1.083153   2.161886   0.000000
    14  H    2.193568   1.079274   2.628499   0.000000
    15  O    5.162305   4.648735   6.242420   5.375884   0.000000
    16  O    2.465156   3.603199   2.809813   4.600620   5.252092
    17  H    6.118949   5.582059   7.198806   6.267227   0.956738
    18  H    2.511163   3.823209   2.459855   4.701865   6.138469
                   16         17         18
    16  O    0.000000
    17  H    6.112021   0.000000
    18  H    0.957289   7.019979   0.000000
 Stoichiometry    C8H6O2S2
 Framework group  C1[X(C8H6O2S2)]
 Deg. of freedom    48
 Full point group                 C1      NOp   1
 Largest Abelian subgroup         C1      NOp   1
 Largest concise Abelian subgroup C1      NOp   1
                         Standard orientation:                         
 ---------------------------------------------------------------------
 Center     Atomic      Atomic             Coordinates (Angstroms)
 Number     Number       Type             X           Y           Z
 ---------------------------------------------------------------------
      1          6           0        0.722359    0.008547   -0.000227
      2          6           0        1.555242   -1.082039   -0.000842
      3          6           0        2.937283   -0.723928   -0.000168
      4          6           0        3.131974    0.619468    0.000948
      5         16           0        1.651252    1.483822    0.001001
      6          1           0        3.742766   -1.449325   -0.000667
      7          1           0        4.070126    1.153041    0.001508
      8          6           0       -0.729959    0.003270   -0.000211
      9          6           0       -1.582789    1.078806   -0.000736
     10         16           0       -1.655214   -1.475827    0.000923
     11          6           0       -2.960447    0.727943   -0.000090
     12          6           0       -3.141934   -0.619685    0.000910
     13          1           0       -3.768289    1.449477   -0.000497
     14          1           0       -4.075648   -1.160989    0.001444
     15          8           0        1.159641   -2.382404   -0.002177
     16          8           0       -1.108311    2.354775   -0.002023
     17          1           0        1.931493   -2.947713    0.001919
     18          1           0       -1.838072    2.974320    0.001600
 ---------------------------------------------------------------------
 Rotational constants (GHZ):           1.2839513           0.6301841           0.4227110

 **********************************************************************

            Population analysis using the SCF density.

 **********************************************************************

 Orbital symmetries:
       Occupied  (A) (A) (A) (A) (A) (A) (A) (A) (A) (A) (A) (A)
                 (A) (A) (A) (A) (A) (A) (A) (A) (A) (A) (A) (A)
                 (A) (A) (A) (A) (A) (A) (A) (A) (A) (A) (A) (A)
                 (A) (A) (A) (A) (A) (A) (A) (A) (A) (A) (A) (A)
                 (A) (A) (A)
       Virtual   (A) (A) (A) (A) (A) (A) (A) (A) (A) (A) (A) (A)
                 (A) (A) (A) (A) (A) (A) (A) (A) (A) (A) (A) (A)
                 (A) (A) (A) (A) (A) (A) (A) (A) (A) (A) (A) (A)
                 (A) (A) (A) (A) (A) (A) (A) (A) (A) (A) (A) (A)
                 (A) (A) (A) (A) (A) (A) (A) (A) (A) (A) (A) (A)
                 (A) (A) (A) (A) (A) (A) (A) (A) (A) (A) (A) (A)
                 (A) (A) (A) (A) (A) (A) (A) (A) (A) (A) (A) (A)
                 (A) (A) (A) (A) (A) (A) (A) (A) (A) (A) (A) (A)
                 (A) (A) (A) (A) (A) (A) (A) (A) (A) (A) (A) (A)
                 (A) (A) (A) (A) (A) (A) (A) (A) (A) (A) (A) (A)
                 (A) (A) (A) (A) (A) (A) (A) (A) (A) (A) (A) (A)
                 (A) (A) (A) (A) (A) (A) (A) (A) (A) (A) (A) (A)
                 (A) (A) (A) (A) (A) (A) (A) (A) (A) (A) (A) (A)
                 (A) (A) (A) (A) (A) (A) (A) (A) (A) (A) (A) (A)
                 (A) (A) (A) (A) (A) (A) (A) (A) (A) (A) (A) (A)
                 (A) (A) (A) (A) (A) (A) (A) (A) (A) (A) (A) (A)
                 (A) (A) (A) (A) (A) (A) (A) (A) (A) (A) (A) (A)
                 (A) (A) (A) (A) (A) (A) (A) (A) (A) (A) (A) (A)
                 (A) (A) (A) (A) (A) (A) (A) (A) (A) (A) (A) (A)
                 (A) (A) (A) (A) (A) (A) (A) (A) (A) (A) (A) (A)
                 (A) (A) (A) (A) (A) (A) (A) (A) (A) (A) (A) (A)
                 (A) (A) (A) (A) (A) (A) (A) (A) (A) (A) (A) (A)
 The electronic state is 1-A.
 Alpha  occ. eigenvalues --  -89.04150 -89.04147 -19.28697 -19.28653 -10.35054
 Alpha  occ. eigenvalues --  -10.34971 -10.32095 -10.31947 -10.31483 -10.31376
 Alpha  occ. eigenvalues --  -10.29425 -10.29268  -8.08186  -8.08182  -6.03035
 Alpha  occ. eigenvalues --   -6.03034  -6.02636  -6.02632  -6.02265  -6.02254
 Alpha  occ. eigenvalues --   -1.17807  -1.17658  -0.99606  -0.97844  -0.87159
 Alpha  occ. eigenvalues --   -0.83453  -0.82589  -0.80589  -0.70358  -0.69528
 Alpha  occ. eigenvalues --   -0.68391  -0.64744  -0.62580  -0.57816  -0.56860
 Alpha  occ. eigenvalues --   -0.55682  -0.52624  -0.51922  -0.51140  -0.50472
 Alpha  occ. eigenvalues --   -0.46375  -0.46181  -0.45284  -0.44031  -0.43836
 Alpha  occ. eigenvalues --   -0.42476  -0.41438  -0.35997  -0.31536  -0.31322
 Alpha  occ. eigenvalues --   -0.26077
 Alpha virt. eigenvalues --    0.02727   0.05076   0.05834   0.06692   0.06755
 Alpha virt. eigenvalues --    0.07301   0.08518   0.09742   0.09844   0.10035
 Alpha virt. eigenvalues --    0.10632   0.11863   0.11942   0.11998   0.12109
 Alpha virt. eigenvalues --    0.13003   0.13319   0.14570   0.14670   0.15608
 Alpha virt. eigenvalues --    0.16715   0.16983   0.17444   0.17641   0.19078
 Alpha virt. eigenvalues --    0.19243   0.19941   0.20097   0.20118   0.21005
 Alpha virt. eigenvalues --    0.21691   0.22053   0.22077   0.22695   0.23267
 Alpha virt. eigenvalues --    0.23620   0.24053   0.24202   0.24989   0.25378
 Alpha virt. eigenvalues --    0.25470   0.25799   0.26244   0.26290   0.28077
 Alpha virt. eigenvalues --    0.28114   0.28899   0.30156   0.31242   0.31994
 Alpha virt. eigenvalues --    0.33251   0.33460   0.33501   0.33981   0.34050
 Alpha virt. eigenvalues --    0.35691   0.35947   0.36886   0.37960   0.38657
 Alpha virt. eigenvalues --    0.41231   0.41451   0.41968   0.42445   0.43150
 Alpha virt. eigenvalues --    0.43845   0.44526   0.45564   0.48622   0.50773
 Alpha virt. eigenvalues --    0.52216   0.52861   0.53737   0.54312   0.57591
 Alpha virt. eigenvalues --    0.57916   0.58467   0.60183   0.62514   0.62620
 Alpha virt. eigenvalues --    0.64170   0.64530   0.65056   0.65967   0.66796
 Alpha virt. eigenvalues --    0.68053   0.68179   0.69255   0.70239   0.70607
 Alpha virt. eigenvalues --    0.72050   0.74528   0.76684   0.78689   0.80193
 Alpha virt. eigenvalues --    0.80467   0.82515   0.83060   0.83481   0.84096
 Alpha virt. eigenvalues --    0.84391   0.86057   0.86207   0.87343   0.90181
 Alpha virt. eigenvalues --    0.90610   0.91202   0.92680   0.94433   0.95230
 Alpha virt. eigenvalues --    0.95812   0.97187   0.97442   0.98926   1.01436
 Alpha virt. eigenvalues --    1.04173   1.06166   1.08108   1.09441   1.10536
 Alpha virt. eigenvalues --    1.10953   1.11802   1.13875   1.15402   1.15543
 Alpha virt. eigenvalues --    1.15710   1.15978   1.16357   1.18571   1.21513
 Alpha virt. eigenvalues --    1.24574   1.25146   1.26942   1.32687   1.33099
 Alpha virt. eigenvalues --    1.34264   1.38530   1.41073   1.43919   1.44850
 Alpha virt. eigenvalues --    1.47551   1.48644   1.50033   1.53748   1.55878
 Alpha virt. eigenvalues --    1.60070   1.62847   1.64180   1.65973   1.68064
 Alpha virt. eigenvalues --    1.68475   1.70126   1.71663   1.75064   1.75523
 Alpha virt. eigenvalues --    1.75946   1.78720   1.83029   1.84989   1.85779
 Alpha virt. eigenvalues --    1.87337   1.87430   1.88032   1.89012   1.89565
 Alpha virt. eigenvalues --    1.94909   1.96124   1.97746   1.98880   2.02100
 Alpha virt. eigenvalues --    2.04423   2.05945   2.07912   2.10473   2.11827
 Alpha virt. eigenvalues --    2.11958   2.14696   2.15501   2.18262   2.19187
 Alpha virt. eigenvalues --    2.20281   2.21098   2.24732   2.25085   2.25287
 Alpha virt. eigenvalues --    2.26597   2.28860   2.29600   2.46901   2.50592
 Alpha virt. eigenvalues --    2.54939   2.60709   2.63031   2.64016   2.71084
 Alpha virt. eigenvalues --    2.71422   2.73353   2.75561   2.75848   2.78122
 Alpha virt. eigenvalues --    2.80486   2.82474   2.83285   2.84038   2.85317
 Alpha virt. eigenvalues --    2.88886   2.94829   3.01999   3.06172   3.08383
 Alpha virt. eigenvalues --    3.09662   3.09938   3.17737   3.18441   3.24279
 Alpha virt. eigenvalues --    3.25223   3.26664   3.27517   3.31694   3.33998
 Alpha virt. eigenvalues --    3.41427   3.42183   3.45669   3.46852   3.52937
 Alpha virt. eigenvalues --    3.57581   3.58324   3.61139   3.66112   3.85844
 Alpha virt. eigenvalues --    3.97941   3.99894   4.07911   4.17227   4.18327
 Alpha virt. eigenvalues --    4.29524   4.39275   4.67734   5.10809   5.11467
 Alpha virt. eigenvalues --    5.58356   5.59310   5.84721   5.88875   8.11536
 Alpha virt. eigenvalues --    8.12436  17.42712  17.43774  17.61365  17.64494
 Alpha virt. eigenvalues --   17.67746  17.73016  23.63058  23.83277  23.94065
 Alpha virt. eigenvalues --   23.96218  24.20109  24.21910  24.30576  24.31287
 Alpha virt. eigenvalues --   50.08350  50.09352 189.36097 189.37574
          Condensed to atoms (all electrons):
               1          2          3          4          5          6
     1  C   10.068825  -5.141978   1.587989  -0.991420   0.644976   0.023736
     2  C   -5.141978  19.753358  -7.291371   2.271426  -2.122155  -0.160461
     3  C    1.587989  -7.291371  13.257965  -1.292979   0.366034   0.459578
     4  C   -0.991420   2.271426  -1.292979   6.418349  -0.159071   0.026656
     5  S    0.644976  -2.122155   0.366034  -0.159071  17.183487   0.013018
     6  H    0.023736  -0.160461   0.459578   0.026656   0.013018   0.511123
     7  H    0.047573  -0.074517   0.079814   0.337308  -0.028060  -0.003838
     8  C    0.368687  -1.482241   0.019562  -0.255348   0.621759  -0.005238
     9  C   -1.490792   0.867589  -0.492219  -0.196548  -0.366651  -0.000596
    10  S    0.614868  -0.294362  -0.026790   0.096888   0.115448   0.000541
    11  C    0.038986  -0.403262  -0.110693   0.008915  -0.014342   0.000047
    12  C   -0.232523  -0.186390   0.012521  -0.031929   0.082842   0.000034
    13  H   -0.002068   0.000455   0.000072   0.000046   0.000281   0.000000
    14  H    0.001280   0.004164   0.000327  -0.000003  -0.000779   0.000000
    15  O    0.019662  -0.149516   0.137656  -0.003520   0.034236  -0.004627
    16  O   -0.014804   0.019352  -0.003173   0.014963  -0.051278   0.000029
    17  H    0.002542   0.294649  -0.317516   0.010392  -0.006818   0.003289
    18  H    0.037234   0.004421   0.002138  -0.002799   0.002293   0.000000
               7          8          9         10         11         12
     1  C    0.047573   0.368687  -1.490792   0.614868   0.038986  -0.232523
     2  C   -0.074517  -1.482241   0.867589  -0.294362  -0.403262  -0.186390
     3  C    0.079814   0.019562  -0.492219  -0.026790  -0.110693   0.012521
     4  C    0.337308  -0.255348  -0.196548   0.096888   0.008915  -0.031929
     5  S   -0.028060   0.621759  -0.366651   0.115448  -0.014342   0.082842
     6  H   -0.003838  -0.005238  -0.000596   0.000541   0.000047   0.000034
     7  H    0.451712   0.001789   0.004418  -0.000885   0.000333  -0.000001
     8  C    0.001789  10.424252  -5.440183   0.667178   1.502814  -0.988310
     9  C    0.004418  -5.440183  20.133755  -2.225159  -7.157745   2.262830
    10  S   -0.000885   0.667178  -2.225159  17.220479   0.387050  -0.191824
    11  C    0.000333   1.502814  -7.157745   0.387050  13.004042  -1.253199
    12  C   -0.000001  -0.988310   2.262830  -0.191824  -1.253199   6.387939
    13  H    0.000000   0.025016  -0.147279   0.012170   0.444925   0.025049
    14  H    0.000000   0.048043  -0.077543  -0.028076   0.079974   0.340141
    15  O   -0.000300  -0.036039   0.010563  -0.043494  -0.002013   0.014782
    16  O   -0.000042   0.026342  -0.180679   0.037580   0.132097  -0.008883
    17  H    0.000014   0.044570   0.007287   0.001772   0.002559  -0.003108
    18  H   -0.000003   0.002144   0.278759  -0.007672  -0.289127   0.009282
              13         14         15         16         17         18
     1  C   -0.002068   0.001280   0.019662  -0.014804   0.002542   0.037234
     2  C    0.000455   0.004164  -0.149516   0.019352   0.294649   0.004421
     3  C    0.000072   0.000327   0.137656  -0.003173  -0.317516   0.002138
     4  C    0.000046  -0.000003  -0.003520   0.014963   0.010392  -0.002799
     5  S    0.000281  -0.000779   0.034236  -0.051278  -0.006818   0.002293
     6  H    0.000000   0.000000  -0.004627   0.000029   0.003289   0.000000
     7  H    0.000000   0.000000  -0.000300  -0.000042   0.000014  -0.000003
     8  C    0.025016   0.048043  -0.036039   0.026342   0.044570   0.002144
     9  C   -0.147279  -0.077543   0.010563  -0.180679   0.007287   0.278759
    10  S    0.012170  -0.028076  -0.043494   0.037580   0.001772  -0.007672
    11  C    0.444925   0.079974  -0.002013   0.132097   0.002559  -0.289127
    12  C    0.025049   0.340141   0.014782  -0.008883  -0.003108   0.009282
    13  H    0.506089  -0.003688   0.000019  -0.002828   0.000000   0.002198
    14  H   -0.003688   0.450461  -0.000042  -0.000261  -0.000002   0.000011
    15  O    0.000019  -0.000042   8.053111  -0.000834   0.200750  -0.000033
    16  O   -0.002828  -0.000261  -0.000834   8.069869  -0.000033   0.200706
    17  H    0.000000  -0.000002   0.200750  -0.000033   0.486927   0.000000
    18  H    0.002198   0.000011  -0.000033   0.200706   0.000000   0.483299
 Mulliken charges:
               1
     1  C    0.417228
     2  C    0.090839
     3  C   -0.388914
     4  C   -0.251328
     5  S   -0.315221
     6  H    0.136710
     7  H    0.184686
     8  C    0.455202
     9  C    0.210193
    10  S   -0.335712
    11  C   -0.371359
    12  C   -0.239250
    13  H    0.139543
    14  H    0.185991
    15  O   -0.230361
    16  O   -0.238121
    17  H    0.272727
    18  H    0.277149
 Sum of Mulliken charges =  -0.00000
 Mulliken charges with hydrogens summed into heavy atoms:
               1
     1  C    0.417228
     2  C    0.090839
     3  C   -0.252204
     4  C   -0.066642
     5  S   -0.315221
     8  C    0.455202
     9  C    0.210193
    10  S   -0.335712
    11  C   -0.231816
    12  C   -0.053260
    15  O    0.042366
    16  O    0.039028
 Electronic spatial extent (au):  <R**2>=           2466.6193
 Charge=             -0.0000 electrons
 Dipole moment (field-independent basis, Debye):
    X=             -0.0015    Y=              0.1324    Z=              0.0127  Tot=              0.1330
 Quadrupole moment (field-independent basis, Debye-Ang):
   XX=            -62.3842   YY=            -72.7452   ZZ=            -89.0695
   XY=            -10.1276   XZ=              0.0019   YZ=             -0.0022
 Traceless Quadrupole moment (field-independent basis, Debye-Ang):
   XX=             12.3488   YY=              1.9878   ZZ=            -14.3366
   XY=            -10.1276   XZ=              0.0019   YZ=             -0.0022
 Octapole moment (field-independent basis, Debye-Ang**2):
  XXX=              0.6919  YYY=              2.7468  ZZZ=             -0.0159  XYY=             -0.0498
  XXY=             -0.7206  XXZ=              0.0446  XZZ=              0.1253  YZZ=             -0.0333
  YYZ=              0.1309  XYZ=             -0.0506
 Hexadecapole moment (field-independent basis, Debye-Ang**3):
 XXXX=          -1904.1152 YYYY=           -862.1600 ZZZZ=           -106.0818 XXXY=            -42.8173
 XXXZ=              0.0112 YYYX=           -144.2530 YYYZ=             -0.0360 ZZZX=              0.0040
 ZZZY=             -0.0150 XXYY=           -388.8353 XXZZ=           -434.3329 YYZZ=           -196.9626
 XXYZ=             -0.0148 YYXZ=              0.0201 ZZXY=             -7.7997
 N-N= 8.729228076741D+02 E-N=-4.712091413138D+03  KE= 1.252571277860D+03
 1\1\GINC-CX1-141-15-2\Scan\RwB97XD\6-311+G(d,p)\C8H6O2S2\NS5018\07-Feb
 -2020\0\\# opt=modredundant wb97xd/6-311+g(d,p) geom=connectivity\\Tit
 le Card Required\\0,1\C,-0.5956431198,-0.4046606354,-0.0003894487\C,-1
 .8925931055,0.0436613657,-0.0010042527\C,-2.8462541497,-1.0187934134,-
 0.0003300597\C,-2.2658070179,-2.2458626964,0.0007861205\S,-0.554090529
 8,-2.1475186315,0.0008392696\H,-3.9184807802,-0.8596303899,-0.00082904
 88\H,-2.7525791211,-3.2091290527,0.0013458605\C,0.6116392929,0.4026337
 421,-0.0003735832\C,1.9168901836,-0.0221211504,-0.0008984925\S,0.56494
 20519,2.1466642499,0.0007610125\C,2.870905827,1.0318712213,-0.00025269
 21\C,2.2771165796,2.2551672249,0.0007482829\H,3.9429630476,0.877231538
 8,-0.0006593148\H,2.7559162199,3.2224230561,0.0012818079\O,-2.28183544
 36,1.3459443825,-0.00233917\O,2.2269176188,-1.3476806959,-0.0021856279
 \H,-3.2375354768,1.3903005228,0.0017564528\H,3.1775279331,-1.460500648
 6,0.0014381436\\Version=ES64L-G16RevA.03\State=1-A\HF=-1255.2344332,-1
 255.2344763,-1255.2345126,-1255.2345419,-1255.2345643,-1255.2345797,-1
 255.2345883,-1255.2345899,-1255.2345847,-1255.2345727,-1255.2345537,-1
 255.2345285,-1255.2344963,-1255.2344578,-1255.2344126,-1255.2343608,-1
 255.2343026,-1255.2342377,-1255.2341664,-1255.2340883,-1255.2340036,-1
 255.2339124,-1255.2338145,-1255.2337101,-1255.2335991,-1255.2334816\RM
 SD=5.225e-09,5.520e-09,6.301e-09,6.327e-09,6.292e-09,2.116e-09,5.732e-
 09,4.298e-09,6.301e-09,5.527e-09,3.624e-09,5.301e-09,8.124e-09,5.283e-
 09,8.174e-09,3.918e-09,3.810e-09,3.698e-09,5.415e-09,5.584e-09,5.636e-
 09,5.576e-09,5.553e-09,5.483e-09,5.380e-09,5.317e-09\PG=C01 [X(C8H6O2S
 2)]\\@


  DISAPPOINTMENT IS THE NURSE OF WISDOM.               
                              SIR BOYLE ROCHE                 
 Job cpu time:       0 days 13 hours 11 minutes 54.3 seconds.
 Elapsed time:       0 days  1 hours 39 minutes  4.2 seconds.
 File lengths (MBytes):  RWF=     68 Int=      0 D2E=      0 Chk=     11 Scr=      1
 Normal termination of Gaussian 16 at Fri Feb  7 01:41:32 2020.
