 Entering Gaussian System, Link 0=g16
 Input=wb97xd_with_methyl.gjf
 Output=wb97xd_with_methyl.log
 Initial command:
 /apps/gaussian/g16-a03/l1.exe "/tmp/pbs.1042531[4].pbs/Gau-17551.inp" -scrdir="/tmp/pbs.1042531[4].pbs/"
 Entering Link 1 = /apps/gaussian/g16-a03/l1.exe PID=     17552.
  
 Copyright (c) 1988,1990,1992,1993,1995,1998,2003,2009,2016,
            Gaussian, Inc.  All Rights Reserved.
  
 This is part of the Gaussian(R) 16 program.  It is based on
 the Gaussian(R) 09 system (copyright 2009, Gaussian, Inc.),
 the Gaussian(R) 03 system (copyright 2003, Gaussian, Inc.),
 the Gaussian(R) 98 system (copyright 1998, Gaussian, Inc.),
 the Gaussian(R) 94 system (copyright 1995, Gaussian, Inc.),
 the Gaussian 92(TM) system (copyright 1992, Gaussian, Inc.),
 the Gaussian 90(TM) system (copyright 1990, Gaussian, Inc.),
 the Gaussian 88(TM) system (copyright 1988, Gaussian, Inc.),
 the Gaussian 86(TM) system (copyright 1986, Carnegie Mellon
 University), and the Gaussian 82(TM) system (copyright 1983,
 Carnegie Mellon University). Gaussian is a federally registered
 trademark of Gaussian, Inc.
  
 This software contains proprietary and confidential information,
 including trade secrets, belonging to Gaussian, Inc.
  
 This software is provided under written license and may be
 used, copied, transmitted, or stored only in accord with that
 written license.
  
 The following legend is applicable only to US Government
 contracts under FAR:
  
                    RESTRICTED RIGHTS LEGEND
  
 Use, reproduction and disclosure by the US Government is
 subject to restrictions as set forth in subparagraphs (a)
 and (c) of the Commercial Computer Software - Restricted
 Rights clause in FAR 52.227-19.
  
 Gaussian, Inc.
 340 Quinnipiac St., Bldg. 40, Wallingford CT 06492
  
  
 ---------------------------------------------------------------
 Warning -- This program may not be used in any manner that
 competes with the business of Gaussian, Inc. or will provide
 assistance to any competitor of Gaussian, Inc.  The licensee
 of this program is prohibited from giving any competitor of
 Gaussian, Inc. access to this program.  By using this program,
 the user acknowledges that Gaussian, Inc. is engaged in the
 business of creating and licensing software in the field of
 computational chemistry and represents and warrants to the
 licensee that it is not a competitor of Gaussian, Inc. and that
 it will not use this program in any manner prohibited above.
 ---------------------------------------------------------------
  

 Cite this work as:
 Gaussian 16, Revision A.03,
 M. J. Frisch, G. W. Trucks, H. B. Schlegel, G. E. Scuseria, 
 M. A. Robb, J. R. Cheeseman, G. Scalmani, V. Barone, 
 G. A. Petersson, H. Nakatsuji, X. Li, M. Caricato, A. V. Marenich, 
 J. Bloino, B. G. Janesko, R. Gomperts, B. Mennucci, H. P. Hratchian, 
 J. V. Ortiz, A. F. Izmaylov, J. L. Sonnenberg, D. Williams-Young, 
 F. Ding, F. Lipparini, F. Egidi, J. Goings, B. Peng, A. Petrone, 
 T. Henderson, D. Ranasinghe, V. G. Zakrzewski, J. Gao, N. Rega, 
 G. Zheng, W. Liang, M. Hada, M. Ehara, K. Toyota, R. Fukuda, 
 J. Hasegawa, M. Ishida, T. Nakajima, Y. Honda, O. Kitao, H. Nakai, 
 T. Vreven, K. Throssell, J. A. Montgomery, Jr., J. E. Peralta, 
 F. Ogliaro, M. J. Bearpark, J. J. Heyd, E. N. Brothers, K. N. Kudin, 
 V. N. Staroverov, T. A. Keith, R. Kobayashi, J. Normand, 
 K. Raghavachari, A. P. Rendell, J. C. Burant, S. S. Iyengar, 
 J. Tomasi, M. Cossi, J. M. Millam, M. Klene, C. Adamo, R. Cammi, 
 J. W. Ochterski, R. L. Martin, K. Morokuma, O. Farkas, 
 J. B. Foresman, and D. J. Fox, Gaussian, Inc., Wallingford CT, 2016.
 
 ******************************************
 Gaussian 16:  ES64L-G16RevA.03 25-Dec-2016
                 7-Feb-2020 
 ******************************************
 %mem=10GB
 %nprocshared=8
 Will use up to    8 processors via shared memory.
 %chk=temp.chk
 --------------------------------------------------------
 # opt=modredundant wb97xd/6-311+g(d,p) geom=connectivity
 --------------------------------------------------------
 1/18=120,19=15,26=3,38=1,57=2/1,3;
 2/9=110,12=2,17=6,18=5,40=1/2;
 3/5=4,6=6,7=111,11=2,25=1,30=1,71=1,74=-58/1,2,3;
 4//1;
 5/5=2,38=5/2;
 6/7=2,8=2,9=2,10=2,28=1/1;
 7//1,2,3,16;
 1/18=20,19=15,26=3/3(2);
 2/9=110/2;
 99//99;
 2/9=110/2;
 3/5=4,6=6,7=111,11=2,25=1,30=1,71=1,74=-58/1,2,3;
 4/5=5,16=3,69=1/1;
 5/5=2,38=5/2;
 7//1,2,3,16;
 1/18=20,19=15,26=3/3(-5);
 2/9=110/2;
 6/7=2,8=2,9=2,10=2,19=2,28=1/1;
 99/9=1/99;
 -------------------
 Title Card Required
 -------------------
 Symbolic Z-matrix:
 Charge =  0 Multiplicity = 1
 C                    -0.59366  -0.41063  -0.00009 
 C                    -1.91734   0.00391  -0.00003 
 C                    -2.86398  -1.05921  -0.00001 
 C                    -2.25936  -2.2846   -0.0001 
 S                    -0.53724  -2.16837  -0.00024 
 H                    -3.93604  -0.92509   0.00005 
 H                    -2.73094  -3.25516  -0.00012 
 C                     0.59366   0.41063  -0.00009 
 C                     1.91734  -0.00391  -0.00002 
 S                     0.53724   2.16837  -0.00025 
 C                     2.86398   1.05921  -0.00001 
 C                     2.25936   2.2846   -0.0001 
 H                     3.93604   0.92509   0.00006 
 H                     2.73094   3.25516  -0.00012 
 O                    -2.20249   1.33737   0.00001 
 O                     2.20249  -1.33737   0.00002 
 C                     3.56951  -1.7273    0.00052 
 H                     4.08546  -1.36398   0.89555 
 H                     3.57058  -2.81592   0.00067 
 H                     4.08605  -1.36423  -0.89427 
 C                    -3.56951   1.7273    0.00054 
 H                    -4.08544   1.36397   0.89557 
 H                    -3.57058   2.81592   0.00069 
 H                    -4.08607   1.36423  -0.89424 
 
 The following ModRedundant input section has been read:
 A       1       2      15 S  25 0.2500                                        
 

 GradGradGradGradGradGradGradGradGradGradGradGradGradGradGradGradGradGrad
 Berny optimization.
 Initialization pass.
                           ----------------------------
                           !    Initial Parameters    !
                           ! (Angstroms and Degrees)  !
 --------------------------                            --------------------------
 ! Name  Definition              Value          Derivative Info.                !
 --------------------------------------------------------------------------------
 ! R1    R(1,2)                  1.3871         estimate D2E/DX2                !
 ! R2    R(1,5)                  1.7586         estimate D2E/DX2                !
 ! R3    R(1,8)                  1.4437         estimate D2E/DX2                !
 ! R4    R(2,3)                  1.4235         estimate D2E/DX2                !
 ! R5    R(2,15)                 1.3636         estimate D2E/DX2                !
 ! R6    R(3,4)                  1.3664         estimate D2E/DX2                !
 ! R7    R(3,6)                  1.0804         estimate D2E/DX2                !
 ! R8    R(4,5)                  1.726          estimate D2E/DX2                !
 ! R9    R(4,7)                  1.0791         estimate D2E/DX2                !
 ! R10   R(8,9)                  1.3871         estimate D2E/DX2                !
 ! R11   R(8,10)                 1.7586         estimate D2E/DX2                !
 ! R12   R(9,11)                 1.4235         estimate D2E/DX2                !
 ! R13   R(9,16)                 1.3636         estimate D2E/DX2                !
 ! R14   R(10,12)                1.726          estimate D2E/DX2                !
 ! R15   R(11,12)                1.3664         estimate D2E/DX2                !
 ! R16   R(11,13)                1.0804         estimate D2E/DX2                !
 ! R17   R(12,14)                1.0791         estimate D2E/DX2                !
 ! R18   R(15,21)                1.4215         estimate D2E/DX2                !
 ! R19   R(16,17)                1.4215         estimate D2E/DX2                !
 ! R20   R(17,18)                1.0951         estimate D2E/DX2                !
 ! R21   R(17,19)                1.0886         estimate D2E/DX2                !
 ! R22   R(17,20)                1.0951         estimate D2E/DX2                !
 ! R23   R(21,22)                1.0951         estimate D2E/DX2                !
 ! R24   R(21,23)                1.0886         estimate D2E/DX2                !
 ! R25   R(21,24)                1.0951         estimate D2E/DX2                !
 ! A1    A(2,1,5)              109.228          estimate D2E/DX2                !
 ! A2    A(2,1,8)              127.9393         estimate D2E/DX2                !
 ! A3    A(5,1,8)              122.8328         estimate D2E/DX2                !
 ! A4    A(1,2,3)              114.2937         estimate D2E/DX2                !
 ! A5    A(1,2,15)             119.46           Scan                            !
 ! A6    A(3,2,15)             126.2463         estimate D2E/DX2                !
 ! A7    A(2,3,4)              112.0548         estimate D2E/DX2                !
 ! A8    A(2,3,6)              124.5521         estimate D2E/DX2                !
 ! A9    A(4,3,6)              123.3931         estimate D2E/DX2                !
 ! A10   A(3,4,5)              112.4009         estimate D2E/DX2                !
 ! A11   A(3,4,7)              127.8234         estimate D2E/DX2                !
 ! A12   A(5,4,7)              119.7757         estimate D2E/DX2                !
 ! A13   A(1,5,4)               92.0227         estimate D2E/DX2                !
 ! A14   A(1,8,9)              127.9393         estimate D2E/DX2                !
 ! A15   A(1,8,10)             122.8328         estimate D2E/DX2                !
 ! A16   A(9,8,10)             109.228          estimate D2E/DX2                !
 ! A17   A(8,9,11)             114.2937         estimate D2E/DX2                !
 ! A18   A(8,9,16)             119.46           estimate D2E/DX2                !
 ! A19   A(11,9,16)            126.2463         estimate D2E/DX2                !
 ! A20   A(8,10,12)             92.0227         estimate D2E/DX2                !
 ! A21   A(9,11,12)            112.0548         estimate D2E/DX2                !
 ! A22   A(9,11,13)            124.5521         estimate D2E/DX2                !
 ! A23   A(12,11,13)           123.3931         estimate D2E/DX2                !
 ! A24   A(10,12,11)           112.4009         estimate D2E/DX2                !
 ! A25   A(10,12,14)           119.7757         estimate D2E/DX2                !
 ! A26   A(11,12,14)           127.8234         estimate D2E/DX2                !
 ! A27   A(2,15,21)            117.9908         estimate D2E/DX2                !
 ! A28   A(9,16,17)            117.9908         estimate D2E/DX2                !
 ! A29   A(16,17,18)           111.2449         estimate D2E/DX2                !
 ! A30   A(16,17,19)           105.9768         estimate D2E/DX2                !
 ! A31   A(16,17,20)           111.2452         estimate D2E/DX2                !
 ! A32   A(18,17,19)           109.3408         estimate D2E/DX2                !
 ! A33   A(18,17,20)           109.6069         estimate D2E/DX2                !
 ! A34   A(19,17,20)           109.3403         estimate D2E/DX2                !
 ! A35   A(15,21,22)           111.2449         estimate D2E/DX2                !
 ! A36   A(15,21,23)           105.9768         estimate D2E/DX2                !
 ! A37   A(15,21,24)           111.2452         estimate D2E/DX2                !
 ! A38   A(22,21,23)           109.3409         estimate D2E/DX2                !
 ! A39   A(22,21,24)           109.6069         estimate D2E/DX2                !
 ! A40   A(23,21,24)           109.3402         estimate D2E/DX2                !
 ! D1    D(5,1,2,3)              0.0042         estimate D2E/DX2                !
 ! D2    D(5,1,2,15)          -179.9959         estimate D2E/DX2                !
 ! D3    D(8,1,2,3)           -179.9984         estimate D2E/DX2                !
 ! D4    D(8,1,2,15)             0.0015         estimate D2E/DX2                !
 ! D5    D(2,1,5,4)             -0.0042         estimate D2E/DX2                !
 ! D6    D(8,1,5,4)            179.9983         estimate D2E/DX2                !
 ! D7    D(2,1,8,9)            179.9937         estimate D2E/DX2                !
 ! D8    D(2,1,8,10)            -0.0091         estimate D2E/DX2                !
 ! D9    D(5,1,8,9)             -0.0093         estimate D2E/DX2                !
 ! D10   D(5,1,8,10)           179.9879         estimate D2E/DX2                !
 ! D11   D(1,2,3,4)             -0.0018         estimate D2E/DX2                !
 ! D12   D(1,2,3,6)            179.9988         estimate D2E/DX2                !
 ! D13   D(15,2,3,4)           179.9983         estimate D2E/DX2                !
 ! D14   D(15,2,3,6)            -0.0011         estimate D2E/DX2                !
 ! D15   D(1,2,15,21)         -179.9784         estimate D2E/DX2                !
 ! D16   D(3,2,15,21)            0.0215         estimate D2E/DX2                !
 ! D17   D(2,3,4,5)             -0.0015         estimate D2E/DX2                !
 ! D18   D(2,3,4,7)           -179.9988         estimate D2E/DX2                !
 ! D19   D(6,3,4,5)            179.9978         estimate D2E/DX2                !
 ! D20   D(6,3,4,7)              0.0006         estimate D2E/DX2                !
 ! D21   D(3,4,5,1)              0.0033         estimate D2E/DX2                !
 ! D22   D(7,4,5,1)           -179.9992         estimate D2E/DX2                !
 ! D23   D(1,8,9,11)          -179.9983         estimate D2E/DX2                !
 ! D24   D(1,8,9,16)             0.0014         estimate D2E/DX2                !
 ! D25   D(10,8,9,11)            0.0041         estimate D2E/DX2                !
 ! D26   D(10,8,9,16)         -179.9961         estimate D2E/DX2                !
 ! D27   D(1,8,10,12)          179.9982         estimate D2E/DX2                !
 ! D28   D(9,8,10,12)           -0.0042         estimate D2E/DX2                !
 ! D29   D(8,9,11,12)           -0.0018         estimate D2E/DX2                !
 ! D30   D(8,9,11,13)          179.9988         estimate D2E/DX2                !
 ! D31   D(16,9,11,12)         179.9985         estimate D2E/DX2                !
 ! D32   D(16,9,11,13)          -0.001          estimate D2E/DX2                !
 ! D33   D(8,9,16,17)         -179.9802         estimate D2E/DX2                !
 ! D34   D(11,9,16,17)           0.0196         estimate D2E/DX2                !
 ! D35   D(8,10,12,11)           0.0033         estimate D2E/DX2                !
 ! D36   D(8,10,12,14)        -179.9992         estimate D2E/DX2                !
 ! D37   D(9,11,12,10)          -0.0015         estimate D2E/DX2                !
 ! D38   D(9,11,12,14)        -179.9988         estimate D2E/DX2                !
 ! D39   D(13,11,12,10)        179.9979         estimate D2E/DX2                !
 ! D40   D(13,11,12,14)          0.0007         estimate D2E/DX2                !
 ! D41   D(2,15,21,22)          61.2425         estimate D2E/DX2                !
 ! D42   D(2,15,21,23)         179.9882         estimate D2E/DX2                !
 ! D43   D(2,15,21,24)         -61.2668         estimate D2E/DX2                !
 ! D44   D(9,16,17,18)          61.2435         estimate D2E/DX2                !
 ! D45   D(9,16,17,19)         179.9891         estimate D2E/DX2                !
 ! D46   D(9,16,17,20)         -61.2658         estimate D2E/DX2                !
 --------------------------------------------------------------------------------
 Trust Radius=3.00D-01 FncErr=1.00D-07 GrdErr=1.00D-06 EigMax=2.50D+02 EigMin=1.00D-04
 Number of optimizations in scan=  26
 Number of steps in this run=    121 maximum allowed number of steps=    144.
 GradGradGradGradGradGradGradGradGradGradGradGradGradGradGradGradGradGrad

                          Input orientation:                          
 ---------------------------------------------------------------------
 Center     Atomic      Atomic             Coordinates (Angstroms)
 Number     Number       Type             X           Y           Z
 ---------------------------------------------------------------------
      1          6           0       -0.593663   -0.410632   -0.000087
      2          6           0       -1.917339    0.003914   -0.000030
      3          6           0       -2.863983   -1.059207   -0.000012
      4          6           0       -2.259364   -2.284600   -0.000096
      5         16           0       -0.537240   -2.168368   -0.000240
      6          1           0       -3.936038   -0.925086    0.000049
      7          1           0       -2.730943   -3.255156   -0.000122
      8          6           0        0.593663    0.410632   -0.000087
      9          6           0        1.917339   -0.003914   -0.000023
     10         16           0        0.537240    2.168368   -0.000245
     11          6           0        2.863983    1.059207   -0.000005
     12          6           0        2.259364    2.284600   -0.000095
     13          1           0        3.936038    0.925086    0.000062
     14          1           0        2.730943    3.255156   -0.000122
     15          8           0       -2.202491    1.337369    0.000005
     16          8           0        2.202491   -1.337369    0.000021
     17          6           0        3.569508   -1.727296    0.000521
     18          1           0        4.085463   -1.363977    0.895548
     19          1           0        3.570583   -2.815916    0.000668
     20          1           0        4.086051   -1.364228   -0.894268
     21          6           0       -3.569508    1.727296    0.000536
     22          1           0       -4.085443    1.363973    0.895572
     23          1           0       -3.570583    2.815916    0.000686
     24          1           0       -4.086071    1.364232   -0.894244
 ---------------------------------------------------------------------
                    Distance matrix (angstroms):
                    1          2          3          4          5
     1  C    0.000000
     2  C    1.387071   0.000000
     3  C    2.361144   1.423503   0.000000
     4  C    2.507253   2.313931   1.366438   0.000000
     5  S    1.758641   2.573613   2.577590   1.726042   0.000000
     6  H    3.381735   2.222203   1.080412   2.158591   3.619058
     7  H    3.557989   3.359090   2.199975   1.079058   2.448151
     8  C    1.443682   2.543728   3.757092   3.924798   2.816058
     9  C    2.543728   3.834686   4.896395   4.758821   3.272586
    10  S    2.816058   3.272586   4.688876   5.258319   4.467862
    11  C    3.757092   4.896395   6.107149   6.117984   4.688876
    12  C    3.924798   4.758821   6.117984   6.426235   5.258319
    13  H    4.722535   5.925418   7.083622   6.977470   5.438720
    14  H    4.948839   5.672486   7.065191   7.456008   6.332111
    15  O    2.375676   1.363603   2.486192   3.622415   3.881141
    16  O    2.945729   4.332671   5.074104   4.561293   2.862985
    17  C    4.366417   5.753484   6.468087   5.855454   4.130366
    18  H    4.858523   6.221480   7.013538   6.473527   4.776909
    19  H    4.808985   6.169986   6.670057   5.854108   4.158549
    20  H    4.858871   6.221910   7.013965   6.473864   4.777107
    21  C    3.664204   2.387406   2.874433   4.220401   4.936684
    22  H    4.017954   2.711556   2.857593   4.177185   5.086222
    23  H    4.390064   3.261989   3.939018   5.266361   5.834746
    24  H    4.018280   2.711730   2.857658   4.177360   5.086522
                    6          7          8          9         10
     6  H    0.000000
     7  H    2.623258   0.000000
     8  C    4.722535   4.948839   0.000000
     9  C    5.925418   5.672486   1.387071   0.000000
    10  S    5.438720   6.332111   1.758641   2.573613   0.000000
    11  C    7.083622   7.065191   2.361144   1.423503   2.577590
    12  C    6.977470   7.456008   2.507253   2.313931   1.726042
    13  H    8.086576   7.869121   3.381735   2.222203   3.619058
    14  H    7.869121   8.498021   3.557989   3.359090   2.448151
    15  O    2.850243   4.622829   2.945729   4.332671   2.862985
    16  O    6.152359   5.293078   2.375676   1.363603   3.881141
    17  C    7.548295   6.483058   3.664204   2.387406   4.936684
    18  H    8.083256   7.130370   4.017968   2.711564   5.086236
    19  H    7.741098   6.316816   4.390064   3.261989   5.834746
    20  H    8.083722   7.130674   4.018266   2.711723   5.086509
    21  C    2.677587   5.052526   4.366417   5.753484   4.130366
    22  H    2.462534   4.896253   4.858508   6.221463   4.776896
    23  H    3.758810   6.128859   4.808985   6.169986   4.158549
    24  H    2.462366   4.896384   4.858887   6.221928   4.777120
                   11         12         13         14         15
    11  C    0.000000
    12  C    1.366438   0.000000
    13  H    1.080412   2.158591   0.000000
    14  H    2.199975   1.079058   2.623258   0.000000
    15  O    5.074104   4.561293   6.152359   5.293078   0.000000
    16  O    2.486192   3.622415   2.850243   4.622829   5.153454
    17  C    2.874433   4.220401   2.677587   5.052526   6.535147
    18  H    2.857595   4.177191   2.462526   4.896258   6.902002
    19  H    3.939018   5.266361   3.758810   6.128859   7.111832
    20  H    2.857655   4.177353   2.462375   4.896379   6.902471
    21  C    6.468087   5.855454   7.548295   6.483058   1.421541
    22  H    7.013520   6.473511   8.083237   7.130355   2.085247
    23  H    6.670057   5.854108   7.741098   6.316816   2.014393
    24  H    7.013983   6.473880   8.083741   7.130689   2.085252
                   16         17         18         19         20
    16  O    0.000000
    17  C    1.421541   0.000000
    18  H    2.085248   1.095118   0.000000
    19  H    2.014393   1.088621   1.781583   0.000000
    20  H    2.085251   1.095118   1.789816   1.781577   0.000000
    21  C    6.535147   7.930937   8.303951   8.462959   8.304564
    22  H    6.901983   8.303935   8.614257   8.768527   8.798859
    23  H    7.111832   8.462959   8.768542   9.094712   8.769184
    24  H    6.902490   8.304579   8.798889   8.769199   8.615571
                   21         22         23         24
    21  C    0.000000
    22  H    1.095117   0.000000
    23  H    1.088621   1.781584   0.000000
    24  H    1.095118   1.789816   1.781576   0.000000
 Stoichiometry    C10H10O2S2
 Framework group  C1[X(C10H10O2S2)]
 Deg. of freedom    66
 Full point group                 C1      NOp   1
 Largest Abelian subgroup         C1      NOp   1
 Largest concise Abelian subgroup C1      NOp   1
                         Standard orientation:                         
 ---------------------------------------------------------------------
 Center     Atomic      Atomic             Coordinates (Angstroms)
 Number     Number       Type             X           Y           Z
 ---------------------------------------------------------------------
      1          6           0       -0.593663   -0.410632   -0.000087
      2          6           0       -1.917339    0.003914   -0.000030
      3          6           0       -2.863983   -1.059207   -0.000012
      4          6           0       -2.259364   -2.284600   -0.000096
      5         16           0       -0.537240   -2.168368   -0.000240
      6          1           0       -3.936038   -0.925086    0.000049
      7          1           0       -2.730943   -3.255156   -0.000122
      8          6           0        0.593663    0.410632   -0.000087
      9          6           0        1.917339   -0.003914   -0.000023
     10         16           0        0.537240    2.168368   -0.000245
     11          6           0        2.863983    1.059207   -0.000005
     12          6           0        2.259364    2.284600   -0.000095
     13          1           0        3.936038    0.925086    0.000062
     14          1           0        2.730943    3.255156   -0.000122
     15          8           0       -2.202491    1.337369    0.000005
     16          8           0        2.202491   -1.337369    0.000021
     17          6           0        3.569508   -1.727296    0.000521
     18          1           0        4.085463   -1.363977    0.895548
     19          1           0        3.570583   -2.815916    0.000668
     20          1           0        4.086051   -1.364228   -0.894268
     21          6           0       -3.569508    1.727296    0.000536
     22          1           0       -4.085443    1.363973    0.895572
     23          1           0       -3.570583    2.815916    0.000686
     24          1           0       -4.086071    1.364232   -0.894244
 ---------------------------------------------------------------------
 Rotational constants (GHZ):           0.7961509           0.4865484           0.3031625
 Standard basis: 6-311+G(d,p) (5D, 7F)
 There are   398 symmetry adapted cartesian basis functions of A   symmetry.
 There are   384 symmetry adapted basis functions of A   symmetry.
   384 basis functions,   612 primitive gaussians,   398 cartesian basis functions
    59 alpha electrons       59 beta electrons
       nuclear repulsion energy      1105.8030505921 Hartrees.
 NAtoms=   24 NActive=   24 NUniq=   24 SFac= 1.00D+00 NAtFMM=   60 NAOKFM=F Big=F
 Integral buffers will be    131072 words long.
 Raffenetti 2 integral format.
 Two-electron integral symmetry is turned on.
 Nuclear repulsion after empirical dispersion term =     1105.7897855085 Hartrees.
 One-electron integrals computed using PRISM.
 NBasis=   384 RedAO= T EigKep=  1.04D-06  NBF=   384
 NBsUse=   382 1.00D-06 EigRej=  3.64D-07 NBFU=   382
 ExpMin= 4.05D-02 ExpMax= 9.34D+04 ExpMxC= 3.17D+03 IAcc=3 IRadAn=         5 AccDes= 0.00D+00
 Harris functional with IExCor= 4639 and IRadAn=       5 diagonalized for initial guess.
 HarFok:  IExCor= 4639 AccDes= 0.00D+00 IRadAn=         5 IDoV= 1 UseB2=F ITyADJ=14
 ICtDFT=  3500011 ScaDFX=  1.000000  1.000000  1.000000  1.000000
 FoFCou: FMM=F IPFlag=           0 FMFlag=      100000 FMFlg1=           0
         NFxFlg=           0 DoJE=T BraDBF=F KetDBF=T FulRan=T
         wScrn=  0.000000 ICntrl=       500 IOpCl=  0 I1Cent=   200000004 NGrid=           0
         NMat0=    1 NMatS0=      1 NMatT0=    0 NMatD0=    1 NMtDS0=    0 NMtDT0=    0
 Petite list used in FoFCou.
 Requested convergence on RMS density matrix=1.00D-08 within 128 cycles.
 Requested convergence on MAX density matrix=1.00D-06.
 Requested convergence on             energy=1.00D-06.
 No special actions if energy rises.
 SCF Done:  E(RwB97XD) =  -1333.82612264     A.U. after   15 cycles
            NFock= 15  Conv=0.62D-08     -V/T= 2.0025

 **********************************************************************

            Population analysis using the SCF density.

 **********************************************************************

 Orbital symmetries:
       Occupied  (A) (A) (A) (A) (A) (A) (A) (A) (A) (A) (A) (A)
                 (A) (A) (A) (A) (A) (A) (A) (A) (A) (A) (A) (A)
                 (A) (A) (A) (A) (A) (A) (A) (A) (A) (A) (A) (A)
                 (A) (A) (A) (A) (A) (A) (A) (A) (A) (A) (A) (A)
                 (A) (A) (A) (A) (A) (A) (A) (A) (A) (A) (A)
       Virtual   (A) (A) (A) (A) (A) (A) (A) (A) (A) (A) (A) (A)
                 (A) (A) (A) (A) (A) (A) (A) (A) (A) (A) (A) (A)
                 (A) (A) (A) (A) (A) (A) (A) (A) (A) (A) (A) (A)
                 (A) (A) (A) (A) (A) (A) (A) (A) (A) (A) (A) (A)
                 (A) (A) (A) (A) (A) (A) (A) (A) (A) (A) (A) (A)
                 (A) (A) (A) (A) (A) (A) (A) (A) (A) (A) (A) (A)
                 (A) (A) (A) (A) (A) (A) (A) (A) (A) (A) (A) (A)
                 (A) (A) (A) (A) (A) (A) (A) (A) (A) (A) (A) (A)
                 (A) (A) (A) (A) (A) (A) (A) (A) (A) (A) (A) (A)
                 (A) (A) (A) (A) (A) (A) (A) (A) (A) (A) (A) (A)
                 (A) (A) (A) (A) (A) (A) (A) (A) (A) (A) (A) (A)
                 (A) (A) (A) (A) (A) (A) (A) (A) (A) (A) (A) (A)
                 (A) (A) (A) (A) (A) (A) (A) (A) (A) (A) (A) (A)
                 (A) (A) (A) (A) (A) (A) (A) (A) (A) (A) (A) (A)
                 (A) (A) (A) (A) (A) (A) (A) (A) (A) (A) (A) (A)
                 (A) (A) (A) (A) (A) (A) (A) (A) (A) (A) (A) (A)
                 (A) (A) (A) (A) (A) (A) (A) (A) (A) (A) (A) (A)
                 (A) (A) (A) (A) (A) (A) (A) (A) (A) (A) (A) (A)
                 (A) (A) (A) (A) (A) (A) (A) (A) (A) (A) (A) (A)
                 (A) (A) (A) (A) (A) (A) (A) (A) (A) (A) (A) (A)
                 (A) (A) (A) (A) (A) (A) (A) (A) (A) (A) (A) (A)
                 (A) (A) (A) (A) (A) (A) (A) (A) (A) (A) (A) (A)
                 (A) (A) (A) (A) (A) (A) (A) (A) (A) (A) (A) (A)
                 (A) (A) (A) (A) (A) (A) (A) (A) (A) (A) (A) (A)
                 (A) (A) (A) (A) (A) (A) (A) (A) (A) (A) (A) (A)
                 (A) (A) (A) (A) (A) (A) (A) (A) (A) (A) (A) (A)
                 (A) (A) (A) (A) (A) (A) (A) (A) (A) (A) (A)
 The electronic state is 1-A.
 Alpha  occ. eigenvalues --  -89.03897 -89.03897 -19.28168 -19.28168 -10.34634
 Alpha  occ. eigenvalues --  -10.34633 -10.34030 -10.34030 -10.31840 -10.31802
 Alpha  occ. eigenvalues --  -10.31102 -10.31102 -10.29057 -10.29057  -8.07865
 Alpha  occ. eigenvalues --   -8.07865  -6.02713  -6.02713  -6.02321  -6.02321
 Alpha  occ. eigenvalues --   -6.01952  -6.01952  -1.17342  -1.17263  -0.98840
 Alpha  occ. eigenvalues --   -0.97039  -0.87014  -0.85119  -0.83689  -0.81366
 Alpha  occ. eigenvalues --   -0.78930  -0.76815  -0.68897  -0.67402  -0.64098
 Alpha  occ. eigenvalues --   -0.63973  -0.62534  -0.56990  -0.56427  -0.56128
 Alpha  occ. eigenvalues --   -0.55795  -0.54167  -0.52743  -0.52440  -0.49568
 Alpha  occ. eigenvalues --   -0.49243  -0.48815  -0.46495  -0.45320  -0.44396
 Alpha  occ. eigenvalues --   -0.43239  -0.41533  -0.40770  -0.40547  -0.40387
 Alpha  occ. eigenvalues --   -0.35302  -0.31100  -0.30931  -0.25076
 Alpha virt. eigenvalues --    0.02417   0.05907   0.06324   0.06827   0.07667
 Alpha virt. eigenvalues --    0.07709   0.08080   0.08516   0.09226   0.09453
 Alpha virt. eigenvalues --    0.09842   0.10611   0.11458   0.11503   0.11875
 Alpha virt. eigenvalues --    0.12243   0.12426   0.12828   0.13723   0.13742
 Alpha virt. eigenvalues --    0.14016   0.15234   0.15317   0.15985   0.16200
 Alpha virt. eigenvalues --    0.17114   0.18087   0.18140   0.18400   0.18620
 Alpha virt. eigenvalues --    0.19566   0.19980   0.20230   0.20430   0.21380
 Alpha virt. eigenvalues --    0.21564   0.22085   0.22201   0.22672   0.23883
 Alpha virt. eigenvalues --    0.24077   0.24585   0.24795   0.25535   0.25599
 Alpha virt. eigenvalues --    0.25676   0.25751   0.26503   0.27070   0.27328
 Alpha virt. eigenvalues --    0.27560   0.27684   0.28230   0.28606   0.29463
 Alpha virt. eigenvalues --    0.29796   0.30147   0.31237   0.31982   0.32130
 Alpha virt. eigenvalues --    0.32901   0.33009   0.33732   0.34204   0.34350
 Alpha virt. eigenvalues --    0.34762   0.35580   0.37354   0.37371   0.37736
 Alpha virt. eigenvalues --    0.38803   0.40014   0.42283   0.42652   0.43087
 Alpha virt. eigenvalues --    0.43112   0.43318   0.44057   0.44156   0.46290
 Alpha virt. eigenvalues --    0.47000   0.50813   0.50906   0.51044   0.52147
 Alpha virt. eigenvalues --    0.52975   0.52999   0.54409   0.55339   0.57607
 Alpha virt. eigenvalues --    0.57747   0.58780   0.59172   0.61276   0.62460
 Alpha virt. eigenvalues --    0.63331   0.63837   0.64888   0.65281   0.65447
 Alpha virt. eigenvalues --    0.66612   0.66734   0.69081   0.70195   0.70315
 Alpha virt. eigenvalues --    0.70833   0.71685   0.73549   0.73618   0.73821
 Alpha virt. eigenvalues --    0.74680   0.75683   0.76902   0.79404   0.80411
 Alpha virt. eigenvalues --    0.80648   0.81911   0.82859   0.83986   0.84109
 Alpha virt. eigenvalues --    0.84179   0.84775   0.86832   0.86888   0.87254
 Alpha virt. eigenvalues --    0.87665   0.90186   0.90983   0.91578   0.92364
 Alpha virt. eigenvalues --    0.94565   0.95258   0.95261   0.98851   1.00212
 Alpha virt. eigenvalues --    1.00579   1.01063   1.04140   1.05397   1.06065
 Alpha virt. eigenvalues --    1.08569   1.08792   1.09696   1.10200   1.10562
 Alpha virt. eigenvalues --    1.10813   1.13787   1.13911   1.14096   1.15917
 Alpha virt. eigenvalues --    1.16158   1.17177   1.17205   1.17327   1.19213
 Alpha virt. eigenvalues --    1.21336   1.25177   1.26905   1.30926   1.33795
 Alpha virt. eigenvalues --    1.34167   1.34991   1.39717   1.41064   1.43140
 Alpha virt. eigenvalues --    1.44892   1.45154   1.49243   1.49622   1.51746
 Alpha virt. eigenvalues --    1.51832   1.52749   1.54261   1.54901   1.57117
 Alpha virt. eigenvalues --    1.62304   1.62984   1.63746   1.63929   1.64493
 Alpha virt. eigenvalues --    1.69730   1.70181   1.70810   1.71908   1.73229
 Alpha virt. eigenvalues --    1.73309   1.73755   1.76536   1.77694   1.78922
 Alpha virt. eigenvalues --    1.79052   1.79117   1.82580   1.85346   1.85457
 Alpha virt. eigenvalues --    1.86532   1.87478   1.88066   1.89305   1.90108
 Alpha virt. eigenvalues --    1.91061   1.93845   1.95790   1.96045   1.96914
 Alpha virt. eigenvalues --    2.00621   2.03904   2.04310   2.08602   2.10576
 Alpha virt. eigenvalues --    2.10821   2.11438   2.13167   2.14796   2.15498
 Alpha virt. eigenvalues --    2.16281   2.17502   2.18580   2.20574   2.21271
 Alpha virt. eigenvalues --    2.22573   2.22646   2.22995   2.24918   2.25322
 Alpha virt. eigenvalues --    2.28188   2.29419   2.30447   2.32295   2.49082
 Alpha virt. eigenvalues --    2.51777   2.53306   2.53441   2.55485   2.56516
 Alpha virt. eigenvalues --    2.57175   2.59215   2.60128   2.61266   2.61769
 Alpha virt. eigenvalues --    2.64294   2.64951   2.66964   2.70558   2.73941
 Alpha virt. eigenvalues --    2.76748   2.77138   2.78602   2.80656   2.83152
 Alpha virt. eigenvalues --    2.84309   2.85689   2.87539   2.88729   2.89548
 Alpha virt. eigenvalues --    2.94638   2.95035   2.96899   3.03133   3.06840
 Alpha virt. eigenvalues --    3.09723   3.10258   3.11289   3.13800   3.13920
 Alpha virt. eigenvalues --    3.18103   3.18476   3.24636   3.26996   3.31625
 Alpha virt. eigenvalues --    3.33142   3.33474   3.33890   3.40575   3.41415
 Alpha virt. eigenvalues --    3.43966   3.45409   3.50631   3.55427   3.57407
 Alpha virt. eigenvalues --    3.62378   3.66810   3.85533   3.87056   3.87188
 Alpha virt. eigenvalues --    3.92217   3.94947   4.11493   4.17314   4.19848
 Alpha virt. eigenvalues --    4.22255   4.24506   4.33180   4.40776   4.70547
 Alpha virt. eigenvalues --    5.13039   5.13971   5.54017   5.54469   5.87285
 Alpha virt. eigenvalues --    5.91891   8.13242   8.14094  17.43139  17.44702
 Alpha virt. eigenvalues --   17.62413  17.64877  17.68786  17.72681  23.65920
 Alpha virt. eigenvalues --   23.86109  23.95240  23.99092  24.04333  24.05304
 Alpha virt. eigenvalues --   24.18082  24.18273  24.29161  24.29626  50.10658
 Alpha virt. eigenvalues --   50.11816 189.38304 189.39481
          Condensed to atoms (all electrons):
               1          2          3          4          5          6
     1  C    9.372294   1.044179  -1.316963  -0.192891  -0.565013   0.017563
     2  C    1.044179   9.587613  -2.768499   0.221841   0.460235  -0.141970
     3  C   -1.316963  -2.768499  10.759706  -0.287762  -0.014002   0.474335
     4  C   -0.192891   0.221841  -0.287762   6.122841   0.064442   0.003240
     5  S   -0.565013   0.460235  -0.014002   0.064442  17.381247   0.010763
     6  H    0.017563  -0.141970   0.474335   0.003240   0.010763   0.495606
     7  H    0.030442  -0.059027   0.066502   0.346480  -0.029049  -0.003677
     8  C   -0.066808  -1.527425  -0.277539   0.032022  -0.801834   0.002040
     9  C   -1.527424  -0.725710   0.230305  -0.087410  -0.416988   0.002115
    10  S   -0.801834  -0.416988  -0.015945   0.055141   0.117907  -0.001459
    11  C   -0.277539   0.230305  -0.113542   0.008297  -0.015945   0.000022
    12  C    0.032022  -0.087410   0.008297  -0.007655   0.055141   0.000104
    13  H    0.002040   0.002115   0.000022   0.000104  -0.001459   0.000000
    14  H    0.006847   0.005104   0.000243   0.000009  -0.000639   0.000000
    15  O   -0.187616   0.366095  -0.088792   0.041491   0.041820  -0.008594
    16  O   -0.264787  -0.051373  -0.006297   0.008958  -0.024236   0.000026
    17  C   -0.156475  -0.059709   0.006542   0.001218  -0.019010  -0.000009
    18  H    0.000193   0.000792   0.000086  -0.000384  -0.002738   0.000000
    19  H    0.004944   0.000279  -0.000083   0.000793   0.000340   0.000000
    20  H    0.000121   0.000790   0.000087  -0.000385  -0.002730   0.000000
    21  C    0.065566   0.111731  -0.250041  -0.043563   0.063600  -0.002388
    22  H   -0.005062  -0.034018   0.034002  -0.001205   0.000364  -0.000548
    23  H   -0.001737   0.025163  -0.002550   0.002901  -0.000774   0.000216
    24  H   -0.005136  -0.034013   0.034135  -0.001148   0.000361  -0.000547
               7          8          9         10         11         12
     1  C    0.030442  -0.066808  -1.527424  -0.801834  -0.277539   0.032022
     2  C   -0.059027  -1.527425  -0.725710  -0.416988   0.230305  -0.087410
     3  C    0.066502  -0.277539   0.230305  -0.015945  -0.113542   0.008297
     4  C    0.346480   0.032022  -0.087410   0.055141   0.008297  -0.007655
     5  S   -0.029049  -0.801834  -0.416988   0.117907  -0.015945   0.055141
     6  H   -0.003677   0.002040   0.002115  -0.001459   0.000022   0.000104
     7  H    0.452046   0.006847   0.005104  -0.000639   0.000243   0.000009
     8  C    0.006847   9.372295   1.044179  -0.565013  -1.316963  -0.192891
     9  C    0.005104   1.044179   9.587613   0.460235  -2.768499   0.221841
    10  S   -0.000639  -0.565013   0.460235  17.381247  -0.014002   0.064442
    11  C    0.000243  -1.316963  -2.768499  -0.014002  10.759706  -0.287762
    12  C    0.000009  -0.192891   0.221841   0.064442  -0.287762   6.122841
    13  H    0.000000   0.017563  -0.141970   0.010763   0.474335   0.003240
    14  H    0.000000   0.030442  -0.059027  -0.029049   0.066502   0.346480
    15  O   -0.000255  -0.264787  -0.051373  -0.024236  -0.006297   0.008958
    16  O   -0.000014  -0.187616   0.366095   0.041820  -0.088792   0.041491
    17  C   -0.000045   0.065566   0.111731   0.063600  -0.250041  -0.043563
    18  H    0.000000  -0.005064  -0.034018   0.000364   0.034007  -0.001203
    19  H   -0.000001  -0.001737   0.025163  -0.000774  -0.002550   0.002901
    20  H    0.000000  -0.005133  -0.034012   0.000361   0.034129  -0.001150
    21  C    0.000608  -0.156475  -0.059709  -0.019010   0.006542   0.001218
    22  H    0.000023   0.000195   0.000792  -0.002738   0.000086  -0.000384
    23  H   -0.000000   0.004944   0.000279   0.000340  -0.000083   0.000793
    24  H    0.000023   0.000119   0.000789  -0.002730   0.000087  -0.000385
              13         14         15         16         17         18
     1  C    0.002040   0.006847  -0.187616  -0.264787  -0.156475   0.000193
     2  C    0.002115   0.005104   0.366095  -0.051373  -0.059709   0.000792
     3  C    0.000022   0.000243  -0.088792  -0.006297   0.006542   0.000086
     4  C    0.000104   0.000009   0.041491   0.008958   0.001218  -0.000384
     5  S   -0.001459  -0.000639   0.041820  -0.024236  -0.019010  -0.002738
     6  H    0.000000   0.000000  -0.008594   0.000026  -0.000009   0.000000
     7  H    0.000000   0.000000  -0.000255  -0.000014  -0.000045   0.000000
     8  C    0.017563   0.030442  -0.264787  -0.187616   0.065566  -0.005064
     9  C   -0.141970  -0.059027  -0.051373   0.366095   0.111731  -0.034018
    10  S    0.010763  -0.029049  -0.024236   0.041820   0.063600   0.000364
    11  C    0.474335   0.066502  -0.006297  -0.088792  -0.250041   0.034007
    12  C    0.003240   0.346480   0.008958   0.041491  -0.043563  -0.001203
    13  H    0.495606  -0.003677   0.000026  -0.008594  -0.002388  -0.000548
    14  H   -0.003677   0.452046  -0.000014  -0.000255   0.000608   0.000023
    15  O    0.000026  -0.000014   8.244866  -0.001277  -0.000701  -0.000000
    16  O   -0.008594  -0.000255  -0.001277   8.244866   0.186504  -0.042532
    17  C   -0.002388   0.000608  -0.000701   0.186504   5.148921   0.421725
    18  H   -0.000548   0.000023  -0.000000  -0.042532   0.421725   0.543367
    19  H    0.000216  -0.000000  -0.000002  -0.056848   0.401018  -0.023147
    20  H   -0.000547   0.000023  -0.000000  -0.042583   0.421689  -0.047060
    21  C   -0.000009  -0.000045   0.186504  -0.000701  -0.001250   0.000000
    22  H    0.000000   0.000000  -0.042530  -0.000000   0.000000  -0.000000
    23  H    0.000000  -0.000001  -0.056848  -0.000002  -0.000000   0.000000
    24  H    0.000000   0.000000  -0.042585  -0.000000   0.000001   0.000000
              19         20         21         22         23         24
     1  C    0.004944   0.000121   0.065566  -0.005062  -0.001737  -0.005136
     2  C    0.000279   0.000790   0.111731  -0.034018   0.025163  -0.034013
     3  C   -0.000083   0.000087  -0.250041   0.034002  -0.002550   0.034135
     4  C    0.000793  -0.000385  -0.043563  -0.001205   0.002901  -0.001148
     5  S    0.000340  -0.002730   0.063600   0.000364  -0.000774   0.000361
     6  H    0.000000   0.000000  -0.002388  -0.000548   0.000216  -0.000547
     7  H   -0.000001   0.000000   0.000608   0.000023  -0.000000   0.000023
     8  C   -0.001737  -0.005133  -0.156475   0.000195   0.004944   0.000119
     9  C    0.025163  -0.034012  -0.059709   0.000792   0.000279   0.000789
    10  S   -0.000774   0.000361  -0.019010  -0.002738   0.000340  -0.002730
    11  C   -0.002550   0.034129   0.006542   0.000086  -0.000083   0.000087
    12  C    0.002901  -0.001150   0.001218  -0.000384   0.000793  -0.000385
    13  H    0.000216  -0.000547  -0.000009   0.000000   0.000000   0.000000
    14  H   -0.000000   0.000023  -0.000045   0.000000  -0.000001   0.000000
    15  O   -0.000002  -0.000000   0.186504  -0.042530  -0.056848  -0.042585
    16  O   -0.056848  -0.042583  -0.000701  -0.000000  -0.000002  -0.000000
    17  C    0.401018   0.421689  -0.001250   0.000000  -0.000000   0.000001
    18  H   -0.023147  -0.047060   0.000000  -0.000000   0.000000   0.000000
    19  H    0.494201  -0.023146  -0.000000   0.000000  -0.000000   0.000000
    20  H   -0.023146   0.543425   0.000001   0.000000   0.000000  -0.000000
    21  C   -0.000000   0.000001   5.148921   0.421726   0.401018   0.421688
    22  H    0.000000   0.000000   0.421726   0.543364  -0.023147  -0.047060
    23  H   -0.000000   0.000000   0.401018  -0.023147   0.494201  -0.023146
    24  H    0.000000  -0.000000   0.421688  -0.047060  -0.023146   0.543428
 Mulliken charges:
               1
     1  C    0.793073
     2  C   -0.150100
     3  C   -0.472247
     4  C   -0.287374
     5  S   -0.301804
     6  H    0.153162
     7  H    0.184381
     8  C    0.793073
     9  C   -0.150100
    10  S   -0.301804
    11  C   -0.472247
    12  C   -0.287374
    13  H    0.153162
    14  H    0.184381
    15  O   -0.113853
    16  O   -0.113853
    17  C   -0.295931
    18  H    0.156137
    19  H    0.178435
    20  H    0.156122
    21  C   -0.295931
    22  H    0.156138
    23  H    0.178435
    24  H    0.156121
 Sum of Mulliken charges =  -0.00000
 Mulliken charges with hydrogens summed into heavy atoms:
               1
     1  C    0.793073
     2  C   -0.150100
     3  C   -0.319085
     4  C   -0.102993
     5  S   -0.301804
     8  C    0.793073
     9  C   -0.150100
    10  S   -0.301804
    11  C   -0.319085
    12  C   -0.102993
    15  O   -0.113853
    16  O   -0.113853
    17  C    0.194762
    21  C    0.194762
 Electronic spatial extent (au):  <R**2>=           3508.3072
 Charge=             -0.0000 electrons
 Dipole moment (field-independent basis, Debye):
    X=             -0.0000    Y=              0.0000    Z=              0.0012  Tot=              0.0012
 Quadrupole moment (field-independent basis, Debye-Ang):
   XX=            -69.3124   YY=            -88.8407   ZZ=           -101.5568
   XY=             -2.9368   XZ=             -0.0001   YZ=              0.0001
 Traceless Quadrupole moment (field-independent basis, Debye-Ang):
   XX=             17.2576   YY=             -2.2707   ZZ=            -14.9868
   XY=             -2.9368   XZ=             -0.0001   YZ=              0.0001
 Octapole moment (field-independent basis, Debye-Ang**2):
  XXX=             -0.0000  YYY=              0.0000  ZZZ=              0.0035  XYY=             -0.0000
  XXY=              0.0000  XXZ=              0.0145  XZZ=             -0.0000  YZZ=              0.0000
  YYZ=              0.0028  XYZ=             -0.0090
 Hexadecapole moment (field-independent basis, Debye-Ang**3):
 XXXX=          -2473.6826 YYYY=          -1566.0629 ZZZZ=           -133.3177 XXXY=           -122.8834
 XXXZ=              0.0002 YYYX=              2.2386 YYYZ=              0.0001 ZZZX=             -0.0000
 ZZZY=             -0.0000 XXYY=           -645.4680 XXZZ=           -528.2675 YYZZ=           -335.6269
 XXYZ=              0.0005 YYXZ=             -0.0003 ZZXY=            -31.4525
 N-N= 1.105789785509D+03 E-N=-5.359409396132D+03  KE= 1.330508267547D+03
 Calling FoFJK, ICntrl=      2127 FMM=F ISym2X=0 I1Cent= 0 IOpClX= 0 NMat=1 NMatS=1 NMatT=0.
 ***** Axes restored to original set *****
 -------------------------------------------------------------------
 Center     Atomic                   Forces (Hartrees/Bohr)
 Number     Number              X              Y              Z
 -------------------------------------------------------------------
      1        6          -0.010140536   -0.006361315   -0.000005573
      2        6           0.005712373    0.003160533    0.000003859
      3        6           0.002994432   -0.003573259   -0.000000755
      4        6           0.004528935    0.006233117   -0.000004136
      5       16          -0.005641505    0.006747477    0.000006298
      6        1          -0.000239936    0.000065613    0.000000506
      7        1          -0.000291363   -0.000011501    0.000000329
      8        6           0.010140536    0.006361315   -0.000005437
      9        6          -0.005712373   -0.003160533    0.000003840
     10       16           0.005641505   -0.006747477    0.000006325
     11        6          -0.002994432    0.003573259   -0.000000699
     12        6          -0.004528935   -0.006233117   -0.000004158
     13        1           0.000239936   -0.000065613    0.000000461
     14        1           0.000291363    0.000011501    0.000000319
     15        8          -0.003583355   -0.003948660    0.000002130
     16        8           0.003583347    0.003948662    0.000001952
     17        6          -0.005542200    0.002625910   -0.000001753
     18        1          -0.000299765    0.000247970    0.000212753
     19        1          -0.000291700    0.000128256   -0.000000114
     20        1          -0.000299366    0.000248680   -0.000213460
     21        6           0.005542201   -0.002625913   -0.000002695
     22        1           0.000299528   -0.000248021    0.000213106
     23        1           0.000291701   -0.000128257   -0.000000002
     24        1           0.000299608   -0.000248629   -0.000213099
 -------------------------------------------------------------------
 Cartesian Forces:  Max     0.010140536 RMS     0.003379085

 GradGradGradGradGradGradGradGradGradGradGradGradGradGradGradGradGradGrad
 Berny optimization.
 FormGI is forming the generalized inverse of G from B-inverse, IUseBI=4.
 Internal  Forces:  Max     0.009646778 RMS     0.002522477
 Search for a local minimum.
 Step number   1 out of a maximum of  121 on scan point     1 out of    26
 All quantities printed in internal units (Hartrees-Bohrs-Radians)
 Mixed Optimization -- RFO/linear search
 Second derivative matrix not updated -- first step.
 ITU=  0
     Eigenvalues ---    0.01407   0.01407   0.01511   0.01609   0.01609
     Eigenvalues ---    0.01688   0.01688   0.01987   0.01987   0.02100
     Eigenvalues ---    0.02100   0.02113   0.02113   0.02173   0.02173
     Eigenvalues ---    0.02275   0.02275   0.10067   0.10067   0.10655
     Eigenvalues ---    0.10655   0.16000   0.16000   0.16000   0.16000
     Eigenvalues ---    0.16000   0.16000   0.16000   0.16000   0.16000
     Eigenvalues ---    0.16000   0.22532   0.22584   0.24749   0.24777
     Eigenvalues ---    0.25000   0.25000   0.25000   0.25000   0.25000
     Eigenvalues ---    0.29140   0.29143   0.32099   0.32171   0.34228
     Eigenvalues ---    0.34228   0.34228   0.34228   0.34973   0.34973
     Eigenvalues ---    0.35945   0.35945   0.36108   0.36108   0.39085
     Eigenvalues ---    0.40679   0.40753   0.42229   0.42229   0.45483
     Eigenvalues ---    0.45570   0.50101   0.50101   0.52226   0.52226
     Eigenvalues --- 1000.000001000.000001000.000001000.000001000.00000
     Eigenvalues --- 1000.000001000.000001000.000001000.000001000.00000
     Eigenvalues --- 1000.000001000.000001000.000001000.000001000.00000
     Eigenvalues --- 1000.000001000.000001000.000001000.000001000.00000
     Eigenvalues --- 1000.000001000.000001000.000001000.000001000.00000
     Eigenvalues --- 1000.000001000.000001000.000001000.000001000.00000
     Eigenvalues --- 1000.000001000.000001000.000001000.000001000.00000
     Eigenvalues --- 1000.000001000.000001000.000001000.000001000.00000
     Eigenvalues --- 1000.000001000.000001000.000001000.000001000.00000
     Eigenvalues --- 1000.00000
 RFO step:  Lambda=-1.76187729D-03 EMin= 1.40683420D-02
 Linear search not attempted -- first point.
 Iteration  1 RMS(Cart)=  0.02055132 RMS(Int)=  0.00004178
 Iteration  2 RMS(Cart)=  0.00007466 RMS(Int)=  0.00000352
 Iteration  3 RMS(Cart)=  0.00000000 RMS(Int)=  0.00000352
 Iteration  1 RMS(Cart)=  0.00000010 RMS(Int)=  0.00000002
 Variable       Old X    -DE/DX   Delta X   Delta X   Delta X     New X
                                 (Linear)    (Quad)   (Total)
    R1        2.62118  -0.00965   0.00000  -0.02048  -0.02048   2.60070
    R2        3.32335  -0.00733   0.00000  -0.02449  -0.02448   3.29887
    R3        2.72816   0.00071   0.00000   0.00181   0.00181   2.72998
    R4        2.69003  -0.00222   0.00000  -0.00563  -0.00563   2.68440
    R5        2.57684  -0.00763   0.00000  -0.01456  -0.01456   2.56228
    R6        2.58219  -0.00585   0.00000  -0.01115  -0.01115   2.57104
    R7        2.04168   0.00025   0.00000   0.00068   0.00068   2.04237
    R8        3.26175  -0.00607   0.00000  -0.01771  -0.01771   3.24404
    R9        2.03912   0.00014   0.00000   0.00038   0.00038   2.03950
   R10        2.62118  -0.00965   0.00000  -0.02040  -0.02040   2.60079
   R11        3.32335  -0.00733   0.00000  -0.02451  -0.02450   3.29885
   R12        2.69003  -0.00222   0.00000  -0.00555  -0.00555   2.68448
   R13        2.57684  -0.00763   0.00000  -0.01456  -0.01456   2.56228
   R14        3.26175  -0.00607   0.00000  -0.01784  -0.01784   3.24390
   R15        2.58219  -0.00585   0.00000  -0.01117  -0.01118   2.57101
   R16        2.04168   0.00025   0.00000   0.00068   0.00068   2.04237
   R17        2.03912   0.00014   0.00000   0.00038   0.00038   2.03950
   R18        2.68632  -0.00708   0.00000  -0.01670  -0.01670   2.66963
   R19        2.68632  -0.00708   0.00000  -0.01670  -0.01670   2.66963
   R20        2.06947   0.00011   0.00000   0.00033   0.00033   2.06980
   R21        2.05719  -0.00013   0.00000  -0.00036  -0.00036   2.05683
   R22        2.06947   0.00011   0.00000   0.00033   0.00033   2.06981
   R23        2.06947   0.00011   0.00000   0.00033   0.00033   2.06980
   R24        2.05719  -0.00013   0.00000  -0.00036  -0.00036   2.05683
   R25        2.06947   0.00011   0.00000   0.00033   0.00033   2.06981
    A1        1.90639   0.00134   0.00000   0.00445   0.00446   1.91085
    A2        2.23296  -0.00110   0.00000  -0.00392  -0.00393   2.22903
    A3        2.14384  -0.00024   0.00000  -0.00053  -0.00053   2.14330
    A4        1.99480   0.00003   0.00000  -0.00041  -0.00041   1.99440
    A5        2.08497   0.00029   0.00000   0.00000   0.00000   2.08497
    A6        2.20341  -0.00031   0.00000   0.00041   0.00041   2.20382
    A7        1.95572  -0.00106   0.00000  -0.00535  -0.00536   1.95037
    A8        2.17384   0.00049   0.00000   0.00244   0.00244   2.17629
    A9        2.15362   0.00057   0.00000   0.00291   0.00292   2.15653
   A10        1.96177   0.00023   0.00000   0.00200   0.00199   1.96376
   A11        2.23094  -0.00038   0.00000  -0.00263  -0.00263   2.22831
   A12        2.09048   0.00015   0.00000   0.00064   0.00064   2.09112
   A13        1.60610  -0.00053   0.00000  -0.00070  -0.00069   1.60541
   A14        2.23296  -0.00110   0.00000  -0.00408  -0.00409   2.22887
   A15        2.14384  -0.00024   0.00000  -0.00069  -0.00069   2.14314
   A16        1.90639   0.00134   0.00000   0.00477   0.00478   1.91117
   A17        1.99480   0.00003   0.00000  -0.00088  -0.00088   1.99392
   A18        2.08497   0.00029   0.00000   0.00164   0.00164   2.08661
   A19        2.20341  -0.00031   0.00000  -0.00075  -0.00075   2.20266
   A20        1.60610  -0.00053   0.00000  -0.00080  -0.00079   1.60531
   A21        1.95572  -0.00106   0.00000  -0.00506  -0.00507   1.95066
   A22        2.17384   0.00049   0.00000   0.00229   0.00230   2.17614
   A23        2.15362   0.00057   0.00000   0.00276   0.00277   2.15639
   A24        1.96177   0.00023   0.00000   0.00196   0.00195   1.96372
   A25        2.09048   0.00015   0.00000   0.00065   0.00066   2.09114
   A26        2.23094  -0.00038   0.00000  -0.00262  -0.00261   2.22833
   A27        2.05933  -0.00392   0.00000  -0.01557  -0.01557   2.04375
   A28        2.05933  -0.00392   0.00000  -0.01557  -0.01557   2.04375
   A29        1.94159  -0.00048   0.00000  -0.00305  -0.00305   1.93854
   A30        1.84964  -0.00022   0.00000  -0.00119  -0.00120   1.84845
   A31        1.94160  -0.00048   0.00000  -0.00305  -0.00306   1.93854
   A32        1.90836   0.00038   0.00000   0.00254   0.00253   1.91089
   A33        1.91300   0.00042   0.00000   0.00230   0.00229   1.91530
   A34        1.90835   0.00038   0.00000   0.00254   0.00254   1.91088
   A35        1.94159  -0.00048   0.00000  -0.00305  -0.00305   1.93854
   A36        1.84964  -0.00022   0.00000  -0.00119  -0.00120   1.84845
   A37        1.94160  -0.00048   0.00000  -0.00305  -0.00306   1.93854
   A38        1.90836   0.00038   0.00000   0.00253   0.00253   1.91089
   A39        1.91300   0.00042   0.00000   0.00230   0.00229   1.91530
   A40        1.90835   0.00038   0.00000   0.00254   0.00254   1.91088
    D1        0.00007  -0.00000   0.00000  -0.00011  -0.00011  -0.00004
    D2       -3.14152  -0.00000   0.00000  -0.00006  -0.00006  -3.14158
    D3       -3.14157  -0.00000   0.00000  -0.00004  -0.00004   3.14158
    D4        0.00003   0.00000   0.00000   0.00001   0.00001   0.00004
    D5       -0.00007   0.00000   0.00000   0.00013   0.00013   0.00006
    D6        3.14156   0.00000   0.00000   0.00006   0.00006  -3.14156
    D7        3.14148  -0.00000   0.00000  -0.00003  -0.00003   3.14145
    D8       -0.00016   0.00000   0.00000   0.00005   0.00005  -0.00011
    D9       -0.00016   0.00000   0.00000   0.00005   0.00005  -0.00011
   D10        3.14138   0.00000   0.00000   0.00013   0.00013   3.14151
   D11       -0.00003   0.00000   0.00000   0.00003   0.00003  -0.00000
   D12        3.14157   0.00000   0.00000   0.00004   0.00004  -3.14158
   D13        3.14156  -0.00000   0.00000  -0.00003  -0.00003   3.14153
   D14       -0.00002  -0.00000   0.00000  -0.00002  -0.00002  -0.00004
   D15       -3.14122  -0.00000   0.00000  -0.00004  -0.00004  -3.14126
   D16        0.00037   0.00000   0.00000   0.00002   0.00002   0.00039
   D17       -0.00003   0.00000   0.00000   0.00007   0.00007   0.00005
   D18       -3.14157  -0.00000   0.00000  -0.00002  -0.00001  -3.14159
   D19        3.14155   0.00000   0.00000   0.00006   0.00006  -3.14157
   D20        0.00001  -0.00000   0.00000  -0.00002  -0.00002  -0.00001
   D21        0.00006  -0.00000   0.00000  -0.00012  -0.00012  -0.00006
   D22       -3.14158  -0.00000   0.00000  -0.00004  -0.00004   3.14157
   D23       -3.14156  -0.00000   0.00000  -0.00004  -0.00004   3.14158
   D24        0.00002   0.00000   0.00000   0.00001   0.00001   0.00004
   D25        0.00007  -0.00000   0.00000  -0.00011  -0.00011  -0.00004
   D26       -3.14152  -0.00000   0.00000  -0.00006  -0.00006  -3.14158
   D27        3.14156   0.00000   0.00000   0.00006   0.00006  -3.14156
   D28       -0.00007   0.00000   0.00000   0.00013   0.00013   0.00006
   D29       -0.00003   0.00000   0.00000   0.00003   0.00003  -0.00000
   D30        3.14157   0.00000   0.00000   0.00004   0.00004  -3.14158
   D31        3.14157  -0.00000   0.00000  -0.00003  -0.00003   3.14153
   D32       -0.00002  -0.00000   0.00000  -0.00002  -0.00002  -0.00004
   D33       -3.14125  -0.00000   0.00000  -0.00004  -0.00004  -3.14129
   D34        0.00034   0.00000   0.00000   0.00002   0.00002   0.00036
   D35        0.00006  -0.00000   0.00000  -0.00012  -0.00012  -0.00006
   D36       -3.14158  -0.00000   0.00000  -0.00004  -0.00004   3.14157
   D37       -0.00003   0.00000   0.00000   0.00007   0.00007   0.00005
   D38       -3.14157  -0.00000   0.00000  -0.00001  -0.00001  -3.14159
   D39        3.14156   0.00000   0.00000   0.00006   0.00006  -3.14156
   D40        0.00001  -0.00000   0.00000  -0.00002  -0.00002  -0.00001
   D41        1.06888  -0.00007   0.00000  -0.00066  -0.00066   1.06822
   D42        3.14139   0.00000   0.00000   0.00002   0.00002   3.14141
   D43       -1.06931   0.00007   0.00000   0.00071   0.00070  -1.06860
   D44        1.06890  -0.00007   0.00000  -0.00066  -0.00066   1.06824
   D45        3.14140   0.00000   0.00000   0.00002   0.00002   3.14142
   D46       -1.06929   0.00007   0.00000   0.00070   0.00070  -1.06859
         Item               Value     Threshold  Converged?
 Maximum Force            0.009672     0.000450     NO 
 RMS     Force            0.002534     0.000300     NO 
 Maximum Displacement     0.058677     0.001800     NO 
 RMS     Displacement     0.020575     0.001200     NO 
 Predicted change in Energy=-8.850921D-04
 GradGradGradGradGradGradGradGradGradGradGradGradGradGradGradGradGradGrad

                          Input orientation:                          
 ---------------------------------------------------------------------
 Center     Atomic      Atomic             Coordinates (Angstroms)
 Number     Number       Type             X           Y           Z
 ---------------------------------------------------------------------
      1          6           0       -0.595155   -0.410412   -0.000064
      2          6           0       -1.906199    0.008136    0.000008
      3          6           0       -2.856272   -1.047917   -0.000036
      4          6           0       -2.253965   -2.267868   -0.000145
      5         16           0       -0.540993   -2.155256   -0.000122
      6          1           0       -3.928324   -0.910888   -0.000007
      7          1           0       -2.727945   -3.237477   -0.000204
      8          6           0        0.594265    0.409508   -0.000063
      9          6           0        1.905283   -0.009263    0.000015
     10         16           0        0.539824    2.154334   -0.000126
     11          6           0        2.855051    1.047122   -0.000028
     12          6           0        2.252719    2.267047   -0.000144
     13          1           0        3.927126    0.910277    0.000006
     14          1           0        2.726656    3.236676   -0.000205
     15          8           0       -2.182420    1.335603    0.000048
     16          8           0        2.183463   -1.336321    0.000063
     17          6           0        3.546363   -1.708132    0.000526
     18          1           0        4.055501   -1.336863    0.896407
     19          1           0        3.558689   -2.796493    0.000668
     20          1           0        4.056048   -1.337098   -0.895143
     21          6           0       -3.544769    1.709426    0.000540
     22          1           0       -4.054436    1.338905    0.896431
     23          1           0       -3.555488    2.797804    0.000686
     24          1           0       -4.055020    1.339149   -0.895120
 ---------------------------------------------------------------------
                    Distance matrix (angstroms):
                    1          2          3          4          5
     1  C    0.000000
     2  C    1.376233   0.000000
     3  C    2.349268   1.420523   0.000000
     4  C    2.490340   2.302420   1.360535   0.000000
     5  S    1.745685   2.558134   2.566460   1.716670   0.000000
     6  H    3.370533   2.221170   1.080774   2.155197   3.608665
     7  H    3.541340   3.348024   2.193317   1.079258   2.440074
     8  C    1.444641   2.532473   3.745703   3.909061   2.804786
     9  C    2.532413   3.811522   4.873522   4.732932   3.254160
    10  S    2.804656   3.254104   4.667748   5.230786   4.443054
    11  C    3.745441   4.873294   6.083453   6.090255   4.667798
    12  C    3.908858   4.732787   6.090219   6.393407   5.230830
    13  H    4.711183   5.902673   7.060383   6.950287   5.418633
    14  H    4.933120   5.646842   7.037529   7.423381   6.304796
    15  O    2.359656   1.355901   2.476942   3.604182   3.857509
    16  O    2.928827   4.304986   5.047981   4.534154   2.844876
    17  C    4.340075   5.716294   6.436584   5.827273   4.111739
    18  H    4.826031   6.176927   6.975651   6.440492   4.754082
    19  H    4.790386   6.142552   6.649003   5.836642   4.149527
    20  H    4.826345   6.177325   6.976032   6.440778   4.754286
    21  C    3.632346   2.362054   2.842001   4.181513   4.894736
    22  H    3.978748   2.681314   2.817121   4.129693   5.035599
    23  H    4.365343   3.240741   3.908768   5.230200   5.798274
    24  H    3.979039   2.681470   2.817136   4.129813   5.035898
                    6          7          8          9         10
     6  H    0.000000
     7  H    2.618000   0.000000
     8  C    4.711396   4.933312   0.000000
     9  C    5.902873   5.646961   1.376277   0.000000
    10  S    5.418481   6.304755   1.745675   2.558443   0.000000
    11  C    7.060310   7.037587   2.348980   1.420566   2.566358
    12  C    6.950148   7.423394   2.490165   2.302671   1.716599
    13  H    8.063792   7.841800   3.370272   2.221126   3.608531
    14  H    7.841623   8.465655   3.541182   3.348249   2.440021
    15  O    2.845155   4.605503   2.927052   4.303253   2.842698
    16  O    6.126577   5.266529   2.360820   1.355901   3.858266
    17  C    7.517084   6.458005   3.633082   2.362054   4.894683
    18  H    8.045277   7.101506   3.979149   2.681320   5.035098
    19  H    7.720807   6.302081   4.366492   3.240741   5.798640
    20  H    8.045690   7.101754   3.979415   2.681463   5.035373
    21  C    2.648238   5.013886   4.338363   5.714627   4.108752
    22  H    2.425093   4.848382   4.824718   6.175709   4.751417
    23  H    3.727386   6.091752   4.787944   6.140004   4.145556
    24  H    2.424860   4.848454   4.825061   6.176140   4.751645
                   11         12         13         14         15
    11  C    0.000000
    12  C    1.360522   0.000000
    13  H    1.080774   2.155102   0.000000
    14  H    2.193314   1.079258   2.617873   0.000000
    15  O    5.045724   4.531892   6.124333   5.264324   0.000000
    16  O    2.476253   3.604033   2.843864   4.605144   5.118605
    17  C    2.840659   4.180378   2.645950   5.012289   6.487163
    18  H    2.815682   4.128195   2.422737   4.846339   6.845232
    19  H    3.907491   5.229244   3.725036   6.090271   7.073510
    20  H    2.815694   4.128302   2.422521   4.846401   6.845669
    21  C    6.433999   5.824243   7.514510   6.454709   1.412706
    22  H    6.973506   6.437818   8.043174   7.098500   2.075562
    23  H    6.645291   5.832407   7.717012   6.297456   2.005828
    24  H    6.973919   6.438132   8.043621   7.098776   2.075565
                   16         17         18         19         20
    16  O    0.000000
    17  C    1.412706   0.000000
    18  H    2.075562   1.095293   0.000000
    19  H    2.005828   1.088430   1.783169   0.000000
    20  H    2.075565   1.095294   1.791551   1.783165   0.000000
    21  C    6.487621   7.871713   8.236903   8.412040   8.237475
    22  H    6.846291   8.237672   8.539955   8.709970   8.726437
    23  H    7.072945   8.410693   8.707752   9.050285   8.708353
    24  H    6.846763   8.238272   8.726464   8.710599   8.541179
                   21         22         23         24
    21  C    0.000000
    22  H    1.095293   0.000000
    23  H    1.088430   1.783169   0.000000
    24  H    1.095294   1.791551   1.783164   0.000000
 Stoichiometry    C10H10O2S2
 Framework group  C1[X(C10H10O2S2)]
 Deg. of freedom    66
 Full point group                 C1      NOp   1
 Largest Abelian subgroup         C1      NOp   1
 Largest concise Abelian subgroup C1      NOp   1
                         Standard orientation:                         
 ---------------------------------------------------------------------
 Center     Atomic      Atomic             Coordinates (Angstroms)
 Number     Number       Type             X           Y           Z
 ---------------------------------------------------------------------
      1          6           0       -0.596689   -0.407625   -0.000098
      2          6           0       -1.905946    0.016480   -0.000027
      3          6           0       -2.860490   -1.035533   -0.000071
      4          6           0       -2.263363   -2.258029   -0.000180
      5         16           0       -0.549929   -2.152683   -0.000157
      6          1           0       -3.931951   -0.893959   -0.000041
      7          1           0       -2.741451   -3.225618   -0.000239
      8          6           0        0.596198    0.407242   -0.000098
      9          6           0        1.905428   -0.017086   -0.000019
     10         16           0        0.549158    2.152283   -0.000161
     11          6           0        2.859668    1.035261   -0.000063
     12          6           0        2.262516    2.257729   -0.000178
     13          1           0        3.931153    0.893870   -0.000029
     14          1           0        2.740562    3.225339   -0.000239
     15          8           0       -2.176534    1.345107    0.000013
     16          8           0        2.177977   -1.345312    0.000028
     17          6           0        3.539287   -1.722901    0.000491
     18          1           0        4.049996   -1.353795    0.896373
     19          1           0        3.546996   -2.811304    0.000633
     20          1           0        4.050542   -1.354032   -0.895178
     21          6           0       -3.537285    1.724706    0.000506
     22          1           0       -4.048519    1.356350    0.896396
     23          1           0       -3.543387    2.813119    0.000652
     24          1           0       -4.049102    1.356596   -0.895154
 ---------------------------------------------------------------------
 Rotational constants (GHZ):           0.8073392           0.4915939           0.3067452
 Standard basis: 6-311+G(d,p) (5D, 7F)
 There are   398 symmetry adapted cartesian basis functions of A   symmetry.
 There are   384 symmetry adapted basis functions of A   symmetry.
   384 basis functions,   612 primitive gaussians,   398 cartesian basis functions
    59 alpha electrons       59 beta electrons
       nuclear repulsion energy      1112.0023807467 Hartrees.
 NAtoms=   24 NActive=   24 NUniq=   24 SFac= 1.00D+00 NAtFMM=   60 NAOKFM=F Big=F
 Integral buffers will be    131072 words long.
 Raffenetti 2 integral format.
 Two-electron integral symmetry is turned on.
 Nuclear repulsion after empirical dispersion term =     1111.9890370197 Hartrees.
 One-electron integrals computed using PRISM.
 NBasis=   384 RedAO= T EigKep=  4.15D-06  NBF=   384
 NBsUse=   381 1.00D-06 EigRej=  9.89D-07 NBFU=   381
 Initial guess from the checkpoint file:  "temp.chk"
 B after Tr=    -0.000000   -0.000000   -0.000000
         Rot=    0.999996   -0.000000    0.000000    0.002717 Ang=  -0.31 deg.
 ExpMin= 4.05D-02 ExpMax= 9.34D+04 ExpMxC= 3.17D+03 IAcc=2 IRadAn=         4 AccDes= 0.00D+00
 Harris functional with IExCor= 4639 and IRadAn=       4 diagonalized for initial guess.
 HarFok:  IExCor= 4639 AccDes= 0.00D+00 IRadAn=         4 IDoV= 1 UseB2=F ITyADJ=14
 ICtDFT=  3500011 ScaDFX=  1.000000  1.000000  1.000000  1.000000
 FoFCou: FMM=F IPFlag=           0 FMFlag=      100000 FMFlg1=           0
         NFxFlg=           0 DoJE=T BraDBF=F KetDBF=T FulRan=T
         wScrn=  0.000000 ICntrl=       500 IOpCl=  0 I1Cent=   200000004 NGrid=           0
         NMat0=    1 NMatS0=      1 NMatT0=    0 NMatD0=    1 NMtDS0=    0 NMtDT0=    0
 Petite list used in FoFCou.
 Requested convergence on RMS density matrix=1.00D-08 within 128 cycles.
 Requested convergence on MAX density matrix=1.00D-06.
 Requested convergence on             energy=1.00D-06.
 No special actions if energy rises.
 SCF Done:  E(RwB97XD) =  -1333.82694487     A.U. after   11 cycles
            NFock= 11  Conv=0.96D-08     -V/T= 2.0023
 Calling FoFJK, ICntrl=      2127 FMM=F ISym2X=0 I1Cent= 0 IOpClX= 0 NMat=1 NMatS=1 NMatT=0.
 ***** Axes restored to original set *****
 -------------------------------------------------------------------
 Center     Atomic                   Forces (Hartrees/Bohr)
 Number     Number              X              Y              Z
 -------------------------------------------------------------------
      1        6          -0.000897129   -0.004554106    0.000004338
      2        6           0.001450699    0.002681640   -0.000003264
      3        6          -0.001525830   -0.000553539   -0.000001918
      4        6           0.001963659   -0.000840301    0.000004649
      5       16          -0.001414857    0.001128067   -0.000005248
      6        1           0.000188790   -0.000197162   -0.000000411
      7        1          -0.000204974    0.000001729    0.000000778
      8        6           0.000854585    0.004324781    0.000004438
      9        6          -0.001208235   -0.002482763   -0.000003228
     10       16           0.001439345   -0.001144699   -0.000005266
     11        6           0.001544560    0.000619251   -0.000001931
     12        6          -0.001937730    0.000833589    0.000004643
     13        1          -0.000193626    0.000209748   -0.000000429
     14        1           0.000208922   -0.000002201    0.000000794
     15        8          -0.002006714   -0.000779017    0.000002063
     16        8           0.001752181    0.000767645    0.000001928
     17        6          -0.001911149   -0.000561571   -0.000001430
     18        1           0.000404432   -0.000214396    0.000025583
     19        1           0.000650321   -0.000138475    0.000000064
     20        1           0.000404605   -0.000214680   -0.000025147
     21        6           0.001906103    0.000555179   -0.000001664
     22        1          -0.000404521    0.000209873    0.000027251
     23        1          -0.000658749    0.000141288    0.000000121
     24        1          -0.000404687    0.000210119   -0.000026714
 -------------------------------------------------------------------
 Cartesian Forces:  Max     0.004554106 RMS     0.001161586

 GradGradGradGradGradGradGradGradGradGradGradGradGradGradGradGradGradGrad
 Berny optimization.
 Using GEDIIS/GDIIS optimizer.
 FormGI is forming the generalized inverse of G from B-inverse, IUseBI=4.
 Internal  Forces:  Max     0.002865710 RMS     0.000673331
 Search for a local minimum.
 Step number   2 out of a maximum of  121 on scan point     1 out of    26
 All quantities printed in internal units (Hartrees-Bohrs-Radians)
 Mixed Optimization -- En-DIIS/RFO-DIIS
 Update second derivatives using D2CorX and points    1    2
 DE= -8.22D-04 DEPred=-8.85D-04 R= 9.29D-01
 TightC=F SS=  1.41D+00  RLast= 6.87D-02 DXNew= 5.0454D-01 2.0599D-01
 Trust test= 9.29D-01 RLast= 6.87D-02 DXMaxT set to 3.00D-01
 ITU=  1  0
 Use linear search instead of GDIIS.
     Eigenvalues ---    0.01407   0.01407   0.01511   0.01608   0.01608
     Eigenvalues ---    0.01687   0.01687   0.01987   0.01987   0.02100
     Eigenvalues ---    0.02100   0.02113   0.02113   0.02173   0.02173
     Eigenvalues ---    0.02274   0.02274   0.10101   0.10102   0.10673
     Eigenvalues ---    0.10673   0.15921   0.16000   0.16000   0.16000
     Eigenvalues ---    0.16000   0.16000   0.16000   0.16000   0.16000
     Eigenvalues ---    0.16142   0.22457   0.22557   0.23886   0.24768
     Eigenvalues ---    0.24898   0.25000   0.25000   0.25000   0.25414
     Eigenvalues ---    0.28116   0.29136   0.31187   0.32125   0.34226
     Eigenvalues ---    0.34228   0.34228   0.34228   0.34973   0.34976
     Eigenvalues ---    0.35945   0.35952   0.36106   0.36108   0.38584
     Eigenvalues ---    0.40704   0.40982   0.42229   0.42931   0.45496
     Eigenvalues ---    0.46692   0.50096   0.51373   0.52226   0.57010
     Eigenvalues --- 1000.000001000.000001000.000001000.000001000.00000
     Eigenvalues --- 1000.000001000.000001000.000001000.000001000.00000
     Eigenvalues --- 1000.000001000.000001000.000001000.000001000.00000
     Eigenvalues --- 1000.000001000.000001000.000001000.000001000.00000
     Eigenvalues --- 1000.000001000.000001000.000001000.000001000.00000
     Eigenvalues --- 1000.000001000.000001000.000001000.000001000.00000
     Eigenvalues --- 1000.000001000.000001000.000001000.000001000.00000
     Eigenvalues --- 1000.000001000.000001000.000001000.000001000.00000
     Eigenvalues --- 1000.000001000.000001000.000001000.000001000.00000
     Eigenvalues --- 1000.00000
 RFO step:  Lambda=-1.42840142D-04 EMin= 1.40683420D-02
 Quartic linear search produced a step of -0.05486.
 Iteration  1 RMS(Cart)=  0.00770234 RMS(Int)=  0.00001895
 Iteration  2 RMS(Cart)=  0.00003586 RMS(Int)=  0.00000143
 Iteration  3 RMS(Cart)=  0.00000000 RMS(Int)=  0.00000143
 Iteration  1 RMS(Cart)=  0.00000001 RMS(Int)=  0.00000000
 Variable       Old X    -DE/DX   Delta X   Delta X   Delta X     New X
                                 (Linear)    (Quad)   (Total)
    R1        2.60070   0.00141   0.00112  -0.00003   0.00109   2.60180
    R2        3.29887  -0.00101   0.00134  -0.00665  -0.00530   3.29356
    R3        2.72998   0.00279  -0.00010   0.00698   0.00688   2.73686
    R4        2.68440   0.00167   0.00031   0.00306   0.00337   2.68777
    R5        2.56228   0.00065   0.00080  -0.00079   0.00000   2.56229
    R6        2.57104   0.00086   0.00061   0.00013   0.00075   2.57178
    R7        2.04237  -0.00021  -0.00004  -0.00047  -0.00050   2.04186
    R8        3.24404  -0.00128   0.00097  -0.00602  -0.00505   3.23899
    R9        2.03950   0.00009  -0.00002   0.00028   0.00026   2.03976
   R10        2.60079   0.00131   0.00112  -0.00004   0.00108   2.60187
   R11        3.29885  -0.00101   0.00134  -0.00670  -0.00535   3.29349
   R12        2.68448   0.00171   0.00030   0.00333   0.00364   2.68812
   R13        2.56228   0.00062   0.00080  -0.00085  -0.00005   2.56223
   R14        3.24390  -0.00123   0.00098  -0.00618  -0.00520   3.23870
   R15        2.57101   0.00084   0.00061   0.00005   0.00067   2.57168
   R16        2.04237  -0.00022  -0.00004  -0.00048  -0.00052   2.04185
   R17        2.03950   0.00009  -0.00002   0.00029   0.00027   2.03977
   R18        2.66963  -0.00013   0.00092  -0.00254  -0.00162   2.66801
   R19        2.66963  -0.00014   0.00092  -0.00256  -0.00165   2.66798
   R20        2.06980   0.00014  -0.00002   0.00042   0.00040   2.07021
   R21        2.05683   0.00015   0.00002   0.00034   0.00036   2.05720
   R22        2.06981   0.00014  -0.00002   0.00042   0.00040   2.07021
   R23        2.06980   0.00014  -0.00002   0.00043   0.00041   2.07022
   R24        2.05683   0.00015   0.00002   0.00035   0.00037   2.05720
   R25        2.06981   0.00014  -0.00002   0.00043   0.00041   2.07022
    A1        1.91085   0.00041  -0.00024   0.00155   0.00130   1.91215
    A2        2.22903  -0.00050   0.00022  -0.00210  -0.00189   2.22715
    A3        2.14330   0.00009   0.00003   0.00056   0.00059   2.14389
    A4        1.99440  -0.00111   0.00002  -0.00255  -0.00253   1.99186
    A5        2.08497   0.00104  -0.00000   0.00000  -0.00000   2.08497
    A6        2.20382   0.00007  -0.00002   0.00255   0.00253   2.20635
    A7        1.95037  -0.00005   0.00029  -0.00110  -0.00081   1.94956
    A8        2.17629   0.00020  -0.00013   0.00156   0.00142   2.17771
    A9        2.15653  -0.00015  -0.00016  -0.00046  -0.00062   2.15592
   A10        1.96376   0.00012  -0.00011   0.00056   0.00045   1.96420
   A11        2.22831  -0.00025   0.00014  -0.00161  -0.00146   2.22685
   A12        2.09112   0.00013  -0.00004   0.00105   0.00101   2.09213
   A13        1.60541   0.00064   0.00004   0.00155   0.00159   1.60700
   A14        2.22887  -0.00057   0.00022  -0.00275  -0.00252   2.22635
   A15        2.14314   0.00023   0.00004   0.00073   0.00077   2.14391
   A16        1.91117   0.00034  -0.00026   0.00202   0.00176   1.91293
   A17        1.99392  -0.00099   0.00005  -0.00325  -0.00320   1.99072
   A18        2.08661   0.00060  -0.00009   0.00218   0.00209   2.08869
   A19        2.20266   0.00039   0.00004   0.00107   0.00111   2.20377
   A20        1.60531   0.00067   0.00004   0.00144   0.00149   1.60680
   A21        1.95066  -0.00012   0.00028  -0.00067  -0.00040   1.95026
   A22        2.17614   0.00025  -0.00013   0.00141   0.00129   2.17743
   A23        2.15639  -0.00013  -0.00015  -0.00074  -0.00089   2.15549
   A24        1.96372   0.00010  -0.00011   0.00046   0.00035   1.96407
   A25        2.09114   0.00014  -0.00004   0.00112   0.00109   2.09222
   A26        2.22833  -0.00024   0.00014  -0.00158  -0.00143   2.22689
   A27        2.04375   0.00280   0.00085   0.00848   0.00934   2.05309
   A28        2.04375   0.00287   0.00085   0.00874   0.00959   2.05335
   A29        1.93854   0.00040   0.00017   0.00200   0.00216   1.94070
   A30        1.84845   0.00076   0.00007   0.00427   0.00433   1.85278
   A31        1.93854   0.00040   0.00017   0.00200   0.00216   1.94070
   A32        1.91089  -0.00058  -0.00014  -0.00313  -0.00328   1.90761
   A33        1.91530  -0.00040  -0.00013  -0.00197  -0.00210   1.91320
   A34        1.91088  -0.00058  -0.00014  -0.00314  -0.00328   1.90760
   A35        1.93854   0.00040   0.00017   0.00195   0.00212   1.94065
   A36        1.84845   0.00078   0.00007   0.00438   0.00444   1.85289
   A37        1.93854   0.00040   0.00017   0.00196   0.00212   1.94066
   A38        1.91089  -0.00058  -0.00014  -0.00313  -0.00327   1.90762
   A39        1.91530  -0.00040  -0.00013  -0.00201  -0.00214   1.91316
   A40        1.91088  -0.00058  -0.00014  -0.00313  -0.00327   1.90761
    D1       -0.00004   0.00000   0.00001   0.00009   0.00010   0.00006
    D2       -3.14158   0.00000   0.00000   0.00005   0.00006  -3.14152
    D3        3.14158   0.00000   0.00000   0.00004   0.00005  -3.14156
    D4        0.00004   0.00000  -0.00000   0.00001   0.00001   0.00004
    D5        0.00006  -0.00000  -0.00001  -0.00014  -0.00014  -0.00009
    D6       -3.14156  -0.00000  -0.00000  -0.00009  -0.00009   3.14153
    D7        3.14145   0.00000   0.00000   0.00008   0.00008   3.14153
    D8       -0.00011   0.00000  -0.00000   0.00002   0.00002  -0.00009
[...]
                 (A) (A) (A) (A) (A) (A) (A) (A) (A) (A) (A) (A)
                 (A) (A) (A) (A) (A) (A) (A) (A) (A) (A) (A) (A)
                 (A) (A) (A) (A) (A) (A) (A) (A) (A) (A) (A) (A)
                 (A) (A) (A) (A) (A) (A) (A) (A) (A) (A) (A) (A)
                 (A) (A) (A) (A) (A) (A) (A) (A) (A) (A) (A) (A)
                 (A) (A) (A) (A) (A) (A) (A) (A) (A) (A) (A) (A)
                 (A) (A) (A) (A) (A) (A) (A) (A) (A) (A) (A) (A)
                 (A) (A) (A) (A) (A) (A) (A) (A) (A) (A) (A) (A)
                 (A) (A) (A) (A) (A) (A) (A) (A) (A) (A) (A) (A)
                 (A) (A) (A) (A) (A) (A) (A) (A) (A) (A) (A) (A)
                 (A) (A) (A) (A) (A) (A) (A) (A) (A) (A) (A) (A)
                 (A) (A) (A) (A) (A) (A) (A) (A) (A) (A) (A) (A)
                 (A) (A) (A) (A) (A) (A) (A) (A) (A) (A) (A) (A)
                 (A) (A) (A) (A) (A) (A) (A) (A) (A) (A) (A) (A)
                 (A) (A) (A) (A) (A) (A) (A) (A) (A) (A) (A) (A)
                 (A) (A) (A) (A) (A) (A) (A) (A) (A) (A) (A) (A)
                 (A) (A) (A) (A) (A) (A) (A) (A) (A) (A) (A) (A)
                 (A) (A) (A) (A) (A) (A) (A) (A) (A) (A) (A) (A)
                 (A) (A) (A) (A) (A) (A) (A) (A) (A) (A) (A) (A)
                 (A) (A) (A) (A) (A) (A) (A) (A) (A) (A) (A)
 The electronic state is 1-A.
 Alpha  occ. eigenvalues --  -89.03823 -89.03817 -19.28274 -19.28173 -10.34600
 Alpha  occ. eigenvalues --  -10.34411 -10.34067 -10.33943 -10.31717 -10.31536
 Alpha  occ. eigenvalues --  -10.30962 -10.30772 -10.28933 -10.28643  -8.07859
 Alpha  occ. eigenvalues --   -8.07853  -6.02701  -6.02701  -6.02307  -6.02301
 Alpha  occ. eigenvalues --   -6.01948  -6.01934  -1.18008  -1.17858  -0.99337
 Alpha  occ. eigenvalues --   -0.97480  -0.87106  -0.85414  -0.83866  -0.81451
 Alpha  occ. eigenvalues --   -0.79115  -0.77033  -0.68774  -0.67530  -0.64345
 Alpha  occ. eigenvalues --   -0.64179  -0.62833  -0.57049  -0.56738  -0.56419
 Alpha  occ. eigenvalues --   -0.55998  -0.54377  -0.52747  -0.52401  -0.49738
 Alpha  occ. eigenvalues --   -0.49430  -0.48635  -0.46650  -0.45583  -0.44433
 Alpha  occ. eigenvalues --   -0.42951  -0.41697  -0.40967  -0.40588  -0.40492
 Alpha  occ. eigenvalues --   -0.35326  -0.31112  -0.30834  -0.25293
 Alpha virt. eigenvalues --    0.02843   0.05900   0.06306   0.06849   0.07661
 Alpha virt. eigenvalues --    0.07849   0.08026   0.08541   0.09399   0.09430
 Alpha virt. eigenvalues --    0.09864   0.10596   0.11426   0.11581   0.11847
 Alpha virt. eigenvalues --    0.12419   0.12499   0.12859   0.13732   0.13873
 Alpha virt. eigenvalues --    0.14037   0.15208   0.15331   0.16105   0.16234
 Alpha virt. eigenvalues --    0.17170   0.18059   0.18231   0.18558   0.18755
 Alpha virt. eigenvalues --    0.19698   0.20036   0.20281   0.20439   0.21478
 Alpha virt. eigenvalues --    0.21521   0.22150   0.22563   0.22636   0.23942
 Alpha virt. eigenvalues --    0.24343   0.24565   0.24981   0.25580   0.25727
 Alpha virt. eigenvalues --    0.25881   0.25912   0.26456   0.26974   0.27370
 Alpha virt. eigenvalues --    0.27624   0.27677   0.28215   0.28678   0.29500
 Alpha virt. eigenvalues --    0.30033   0.30244   0.31336   0.32045   0.32201
 Alpha virt. eigenvalues --    0.32966   0.33089   0.33681   0.34252   0.34384
 Alpha virt. eigenvalues --    0.34900   0.36063   0.37318   0.37748   0.38102
 Alpha virt. eigenvalues --    0.38746   0.40081   0.42444   0.42723   0.42961
 Alpha virt. eigenvalues --    0.43049   0.43661   0.43903   0.44408   0.46140
 Alpha virt. eigenvalues --    0.47560   0.50878   0.50966   0.51062   0.52573
 Alpha virt. eigenvalues --    0.52856   0.53064   0.54474   0.55079   0.57957
 Alpha virt. eigenvalues --    0.58282   0.59262   0.59879   0.61231   0.62708
 Alpha virt. eigenvalues --    0.63359   0.63861   0.65009   0.65276   0.65654
 Alpha virt. eigenvalues --    0.66496   0.67297   0.69061   0.70293   0.70374
 Alpha virt. eigenvalues --    0.70918   0.71654   0.73288   0.73869   0.73922
 Alpha virt. eigenvalues --    0.74608   0.75653   0.77185   0.79768   0.80371
 Alpha virt. eigenvalues --    0.80535   0.81996   0.83321   0.83857   0.83899
 Alpha virt. eigenvalues --    0.84078   0.85054   0.86644   0.87029   0.87031
 Alpha virt. eigenvalues --    0.87830   0.90703   0.91024   0.91835   0.92678
 Alpha virt. eigenvalues --    0.94953   0.95221   0.95338   0.99000   1.00112
 Alpha virt. eigenvalues --    1.00594   1.01155   1.05109   1.05828   1.06264
 Alpha virt. eigenvalues --    1.08354   1.08669   1.09722   1.10364   1.11004
 Alpha virt. eigenvalues --    1.11043   1.13384   1.14099   1.14514   1.15963
 Alpha virt. eigenvalues --    1.16575   1.17102   1.17398   1.17511   1.19414
 Alpha virt. eigenvalues --    1.20985   1.25342   1.26839   1.30970   1.34145
 Alpha virt. eigenvalues --    1.34572   1.35628   1.39995   1.41160   1.43187
 Alpha virt. eigenvalues --    1.45336   1.45728   1.49349   1.49967   1.51802
 Alpha virt. eigenvalues --    1.51919   1.53129   1.53704   1.55220   1.57167
 Alpha virt. eigenvalues --    1.62440   1.63026   1.63591   1.64182   1.64983
 Alpha virt. eigenvalues --    1.69909   1.70086   1.71015   1.72214   1.73519
 Alpha virt. eigenvalues --    1.73609   1.75128   1.77680   1.77887   1.79103
 Alpha virt. eigenvalues --    1.79188   1.79456   1.82482   1.85192   1.85756
 Alpha virt. eigenvalues --    1.86699   1.87828   1.88622   1.90106   1.90175
 Alpha virt. eigenvalues --    1.92017   1.94142   1.95667   1.96962   1.97552
 Alpha virt. eigenvalues --    2.01806   2.04004   2.05130   2.09056   2.10576
 Alpha virt. eigenvalues --    2.10640   2.11712   2.13127   2.14634   2.14841
 Alpha virt. eigenvalues --    2.16058   2.17708   2.19436   2.21239   2.21356
 Alpha virt. eigenvalues --    2.22746   2.23263   2.23464   2.24968   2.25424
 Alpha virt. eigenvalues --    2.28995   2.30021   2.30409   2.32672   2.49196
 Alpha virt. eigenvalues --    2.52058   2.53320   2.53675   2.55770   2.56474
 Alpha virt. eigenvalues --    2.57141   2.60135   2.60382   2.61821   2.62582
 Alpha virt. eigenvalues --    2.63200   2.65828   2.67511   2.71910   2.74653
 Alpha virt. eigenvalues --    2.77367   2.77407   2.79317   2.80857   2.83378
 Alpha virt. eigenvalues --    2.84274   2.85768   2.88367   2.89689   2.89699
 Alpha virt. eigenvalues --    2.95875   2.96238   2.97421   3.03045   3.07097
 Alpha virt. eigenvalues --    3.10307   3.11222   3.12933   3.14590   3.14954
 Alpha virt. eigenvalues --    3.19103   3.20600   3.25659   3.27981   3.32648
 Alpha virt. eigenvalues --    3.34068   3.34675   3.34919   3.42452   3.42911
 Alpha virt. eigenvalues --    3.45446   3.47861   3.51537   3.55988   3.58355
 Alpha virt. eigenvalues --    3.63366   3.67286   3.87048   3.87348   3.87474
 Alpha virt. eigenvalues --    3.92570   3.95950   4.10805   4.17107   4.19293
 Alpha virt. eigenvalues --    4.22471   4.26148   4.34499   4.41191   4.71310
 Alpha virt. eigenvalues --    5.13220   5.14007   5.53926   5.55499   5.89314
 Alpha virt. eigenvalues --    5.94415   8.14452   8.15114  17.43151  17.44792
 Alpha virt. eigenvalues --   17.63098  17.65566  17.69207  17.73595  23.66560
 Alpha virt. eigenvalues --   23.86483  23.94673  23.97802  24.04671  24.05565
 Alpha virt. eigenvalues --   24.20363  24.21878  24.30938  24.31750  50.11506
 Alpha virt. eigenvalues --   50.12216 189.39617 189.40538
          Condensed to atoms (all electrons):
               1          2          3          4          5          6
     1  C    9.051076   1.133781  -1.512639  -0.237035  -0.584812   0.012050
     2  C    1.133781   9.494229  -2.510632   0.112302   0.207128  -0.144076
     3  C   -1.512639  -2.510632  11.307317  -0.287458   0.123081   0.488152
     4  C   -0.237035   0.112302  -0.287458   6.396730  -0.005126   0.002859
     5  S   -0.584812   0.207128   0.123081  -0.005126  17.336443   0.011372
     6  H    0.012050  -0.144076   0.488152   0.002859   0.011372   0.502035
     7  H    0.031095  -0.055517   0.069416   0.342506  -0.031553  -0.004107
     8  C    0.142324  -1.428114  -0.866215  -0.015099  -0.663700  -0.003119
     9  C   -1.058248  -0.657579   0.043498  -0.115335  -0.290449   0.001705
    10  S   -0.694958  -0.346187  -0.064109   0.074602   0.102124  -0.001719
    11  C   -0.508115   0.118374  -0.135194  -0.000921  -0.034492  -0.000013
    12  C    0.077851  -0.089489   0.008490  -0.008255   0.068983   0.000099
    13  H    0.002348   0.002340   0.000020   0.000114  -0.001585   0.000000
    14  H    0.006596   0.005414   0.000281   0.000013  -0.000722   0.000000
    15  O   -0.194936   0.380005  -0.058755   0.047771   0.037444  -0.011510
    16  O   -0.250785  -0.044849  -0.006116   0.010853  -0.025906   0.000029
    17  C   -0.138834  -0.054081   0.004171   0.002493  -0.017700  -0.000008
    18  H   -0.000455   0.000704   0.000085  -0.000424  -0.002776   0.000000
    19  H    0.004653   0.000224  -0.000075   0.000781   0.000159   0.000000
    20  H   -0.000461   0.000704   0.000085  -0.000424  -0.002775   0.000000
    21  C    0.036664   0.062785  -0.185368  -0.060770   0.061686  -0.002968
    22  H   -0.008217  -0.041117   0.043978  -0.000540   0.000453  -0.000874
    23  H    0.001246   0.029656  -0.010161   0.002824  -0.000871   0.000379
    24  H   -0.008218  -0.041120   0.043984  -0.000539   0.000453  -0.000874
               7          8          9         10         11         12
     1  C    0.031095   0.142324  -1.058248  -0.694958  -0.508115   0.077851
     2  C   -0.055517  -1.428114  -0.657579  -0.346187   0.118374  -0.089489
     3  C    0.069416  -0.866215   0.043498  -0.064109  -0.135194   0.008490
     4  C    0.342506  -0.015099  -0.115335   0.074602  -0.000921  -0.008255
     5  S   -0.031553  -0.663700  -0.290449   0.102124  -0.034492   0.068983
     6  H   -0.004107  -0.003119   0.001705  -0.001719  -0.000013   0.000099
     7  H    0.455933   0.006415   0.004949  -0.000803   0.000259   0.000007
     8  C    0.006415   9.472698   1.138324  -0.519883  -1.392045  -0.173250
     9  C    0.004949   1.138324   8.952502   0.290516  -2.450541   0.171488
    10  S   -0.000803  -0.519883   0.290516  17.381078   0.033838   0.021105
    11  C    0.000259  -1.392045  -2.450541   0.033838  10.915177  -0.356454
    12  C    0.000007  -0.173250   0.171488   0.021105  -0.356454   6.193228
    13  H    0.000000   0.016778  -0.144243   0.010253   0.476027   0.006016
    14  H    0.000000   0.028687  -0.057377  -0.029671   0.067301   0.345843
    15  O   -0.000331  -0.295443  -0.046353  -0.028503  -0.003814   0.008959
    16  O   -0.000029  -0.180238   0.323153   0.043660  -0.088179   0.040594
    17  C   -0.000058   0.073438   0.065438   0.062146  -0.228560  -0.047339
    18  H    0.000000  -0.005349  -0.033809   0.000437   0.034727  -0.001370
    19  H   -0.000001  -0.002172   0.026709  -0.000804  -0.002368   0.003032
    20  H    0.000000  -0.005357  -0.033814   0.000437   0.034747  -0.001365
    21  C    0.000724  -0.136929  -0.044954  -0.021639   0.004710   0.002485
    22  H    0.000030  -0.002576   0.000521  -0.002937   0.000069  -0.000351
    23  H   -0.000001   0.008216   0.000658   0.000875   0.000038   0.000527
    24  H    0.000030  -0.002577   0.000521  -0.002936   0.000069  -0.000351
              13         14         15         16         17         18
     1  C    0.002348   0.006596  -0.194936  -0.250785  -0.138834  -0.000455
     2  C    0.002340   0.005414   0.380005  -0.044849  -0.054081   0.000704
     3  C    0.000020   0.000281  -0.058755  -0.006116   0.004171   0.000085
     4  C    0.000114   0.000013   0.047771   0.010853   0.002493  -0.000424
     5  S   -0.001585  -0.000722   0.037444  -0.025906  -0.017700  -0.002776
     6  H    0.000000   0.000000  -0.011510   0.000029  -0.000008   0.000000
     7  H    0.000000   0.000000  -0.000331  -0.000029  -0.000058   0.000000
     8  C    0.016778   0.028687  -0.295443  -0.180238   0.073438  -0.005349
     9  C   -0.144243  -0.057377  -0.046353   0.323153   0.065438  -0.033809
    10  S    0.010253  -0.029671  -0.028503   0.043660   0.062146   0.000437
    11  C    0.476027   0.067301  -0.003814  -0.088179  -0.228560   0.034727
    12  C    0.006016   0.345843   0.008959   0.040594  -0.047339  -0.001370
    13  H    0.495905  -0.003807   0.000017  -0.008695  -0.003504  -0.000608
    14  H   -0.003807   0.453723  -0.000037  -0.000267   0.000675   0.000026
    15  O    0.000017  -0.000037   8.225484  -0.001331  -0.000721   0.000000
    16  O   -0.008695  -0.000267  -0.001331   8.252206   0.188808  -0.043991
    17  C   -0.003504   0.000675  -0.000721   0.188808   5.146437   0.423188
    18  H   -0.000608   0.000026   0.000000  -0.043991   0.423188   0.545847
    19  H    0.000242  -0.000000  -0.000002  -0.058043   0.401018  -0.023214
    20  H   -0.000607   0.000026   0.000000  -0.043999   0.423181  -0.047737
    21  C   -0.000006  -0.000033   0.197963  -0.000767  -0.001265   0.000001
    22  H    0.000000   0.000000  -0.041323  -0.000000   0.000000  -0.000000
    23  H    0.000000  -0.000001  -0.061272  -0.000002   0.000000   0.000000
    24  H    0.000000   0.000000  -0.041325  -0.000000   0.000000   0.000000
              19         20         21         22         23         24
     1  C    0.004653  -0.000461   0.036664  -0.008217   0.001246  -0.008218
     2  C    0.000224   0.000704   0.062785  -0.041117   0.029656  -0.041120
     3  C   -0.000075   0.000085  -0.185368   0.043978  -0.010161   0.043984
     4  C    0.000781  -0.000424  -0.060770  -0.000540   0.002824  -0.000539
     5  S    0.000159  -0.002775   0.061686   0.000453  -0.000871   0.000453
     6  H    0.000000   0.000000  -0.002968  -0.000874   0.000379  -0.000874
     7  H   -0.000001   0.000000   0.000724   0.000030  -0.000001   0.000030
     8  C   -0.002172  -0.005357  -0.136929  -0.002576   0.008216  -0.002577
     9  C    0.026709  -0.033814  -0.044954   0.000521   0.000658   0.000521
    10  S   -0.000804   0.000437  -0.021639  -0.002937   0.000875  -0.002936
    11  C   -0.002368   0.034747   0.004710   0.000069   0.000038   0.000069
    12  C    0.003032  -0.001365   0.002485  -0.000351   0.000527  -0.000351
    13  H    0.000242  -0.000607  -0.000006   0.000000   0.000000   0.000000
    14  H   -0.000000   0.000026  -0.000033   0.000000  -0.000001   0.000000
    15  O   -0.000002   0.000000   0.197963  -0.041323  -0.061272  -0.041325
    16  O   -0.058043  -0.043999  -0.000767  -0.000000  -0.000002  -0.000000
    17  C    0.401018   0.423181  -0.001265   0.000000   0.000000   0.000000
    18  H   -0.023214  -0.047737   0.000001  -0.000000   0.000000   0.000000
    19  H    0.495387  -0.023214  -0.000001   0.000000  -0.000000   0.000000
    20  H   -0.023214   0.545856   0.000001   0.000000   0.000000  -0.000000
    21  C   -0.000001   0.000001   5.144860   0.423371   0.399654   0.423370
    22  H    0.000000   0.000000   0.423371   0.544760  -0.023259  -0.047631
    23  H   -0.000000   0.000000   0.399654  -0.023259   0.494916  -0.023259
    24  H    0.000000  -0.000000   0.423370  -0.047631  -0.023259   0.544763
 Mulliken charges:
               1
     1  C    0.698031
     2  C   -0.134883
     3  C   -0.495835
     4  C   -0.261922
     5  S   -0.286857
     6  H    0.150586
     7  H    0.181037
     8  C    0.805187
     9  C   -0.087281
    10  S   -0.306921
    11  C   -0.484640
    12  C   -0.270484
    13  H    0.152998
    14  H    0.183331
    15  O   -0.111988
    16  O   -0.106104
    17  C   -0.298922
    18  H    0.154720
    19  H    0.177691
    20  H    0.154716
    21  C   -0.303575
    22  H    0.155641
    23  H    0.179834
    24  H    0.155640
 Sum of Mulliken charges =  -0.00000
 Mulliken charges with hydrogens summed into heavy atoms:
               1
     1  C    0.698031
     2  C   -0.134883
     3  C   -0.345248
     4  C   -0.080885
     5  S   -0.286857
     8  C    0.805187
     9  C   -0.087281
    10  S   -0.306921
    11  C   -0.331643
    12  C   -0.087153
    15  O   -0.111988
    16  O   -0.106104
    17  C    0.188205
    21  C    0.187539
 Electronic spatial extent (au):  <R**2>=           3501.8278
 Charge=              0.0000 electrons
 Dipole moment (field-independent basis, Debye):
    X=              0.0045    Y=             -0.0701    Z=              0.0001  Tot=              0.0703
 Quadrupole moment (field-independent basis, Debye-Ang):
   XX=            -69.5333   YY=            -89.2064   ZZ=           -101.3211
   XY=             -2.5757   XZ=              0.0000   YZ=             -0.0000
 Traceless Quadrupole moment (field-independent basis, Debye-Ang):
   XX=             17.1536   YY=             -2.5195   ZZ=            -14.6342
   XY=             -2.5757   XZ=              0.0000   YZ=             -0.0000
 Octapole moment (field-independent basis, Debye-Ang**2):
  XXX=             -2.3889  YYY=             -1.0485  ZZZ=              0.0001  XYY=              0.7898
  XXY=              0.5888  XXZ=              0.0008  XZZ=             -0.2931  YZZ=             -0.0872
  YYZ=              0.0004  XYZ=             -0.0006
 Hexadecapole moment (field-independent basis, Debye-Ang**3):
 XXXX=          -2496.5345 YYYY=          -1531.5421 ZZZZ=           -132.7907 XXXY=           -123.2023
 XXXZ=              0.0012 YYYX=              5.2498 YYYZ=             -0.0021 ZZZX=              0.0028
 ZZZY=             -0.0029 XXYY=           -648.4551 XXZZ=           -532.1674 YYZZ=           -328.0807
 XXYZ=             -0.0009 YYXZ=              0.0013 ZZXY=            -30.5672
 N-N= 1.109316012248D+03 E-N=-5.366588072029D+03  KE= 1.330751597448D+03
 1\1\GINC-CX1-141-15-2\Scan\RwB97XD\6-311+G(d,p)\C10H10O2S2\NS5018\07-F
 eb-2020\0\\# opt=modredundant wb97xd/6-311+g(d,p) geom=connectivity\\T
 itle Card Required\\0,1\C,-0.5820978844,-0.3947654528,0.0001511716\C,-
 1.878405754,0.0694258544,0.0001593623\C,-2.8316946403,-1.0010019609,0.
 0001598919\C,-2.2492549049,-2.2280327543,0.0001517589\S,-0.5398563456,
 -2.132720334,0.0001440436\H,-3.9034460425,-0.8654199025,0.0001653386\H
 ,-2.7387447786,-3.1899771889,0.0001496354\C,0.6242008331,0.4135050067,
 0.0001508507\C,1.9324264082,-0.015585828,0.0001422397\S,0.5782401364,2
 .15447328,0.0001637229\C,2.8875634638,1.0399760486,0.0001470242\C,2.28
 91057494,2.262681628,0.0001583838\H,3.9591480361,0.9010331844,0.000141
 6232\H,2.7679493433,3.2299507028,0.0001636767\O,-2.2512968786,1.369152
 1513,0.0001647477\O,2.2063152448,-1.3431859135,0.000125709\C,3.5629990
 621,-1.7305276108,0.0001814216\H,4.0799126931,-1.366848272,0.895288302
 3\H,3.5676128628,-2.8192255647,0.0001864439\H,4.0799841066,-1.36685777
 99,-0.894888193\C,-3.626802263,1.6767463173,0.0001910992\H,-4.12286162
 93,1.2867717893,0.8956209038\H,-3.6881036662,2.7636478916,0.0001997281
 \H,-4.1228931523,1.2867847078,-0.8952268861\\Version=ES64L-G16RevA.03\
 State=1-A\HF=-1333.8270454,-1333.8270509,-1333.8270487,-1333.8270388,-
 1333.8270212,-1333.8269959,-1333.8269631,-1333.8269226,-1333.8268745,-
 1333.8268188,-1333.8267555,-1333.8266846,-1333.8266061,-1333.8265201,-
 1333.8264265,-1333.8263254,-1333.8262169,-1333.8261009,-1333.8259775,-
 1333.8258467,-1333.8257085,-1333.8255629,-1333.8254098,-1333.8252493,-
 1333.8250813,-1333.824906\RMSD=5.830e-09,7.956e-09,8.863e-09,7.241e-09
 ,6.726e-09,7.026e-09,7.169e-09,6.798e-09,6.738e-09,6.857e-09,6.818e-09
 ,6.640e-09,6.625e-09,7.337e-09,6.621e-09,6.111e-09,6.605e-09,5.837e-09
 ,5.901e-09,6.039e-09,6.207e-09,6.462e-09,6.700e-09,6.954e-09,7.118e-09
 ,7.248e-09\PG=C01 [X(C10H10O2S2)]\\@


 Standing in the middle of the road is very dangerous;
 you get knocked down by the traffic from both sides.
                                -- Margaret Thatcher
 Job cpu time:       0 days 22 hours 49 minutes 34.4 seconds.
 Elapsed time:       0 days  2 hours 51 minutes 20.7 seconds.
 File lengths (MBytes):  RWF=     97 Int=      0 D2E=      0 Chk=     18 Scr=      1
 Normal termination of Gaussian 16 at Fri Feb  7 03:04:22 2020.
